/*--------------------------------*- C++ -*----------------------------------*\
  =========                 |
  \\      /  F ield         | OpenFOAM: The Open Source CFD Toolbox
   \\    /   O peration     | Website:  https://openfoam.org
    \\  /    A nd           | Version:  11
     \\/     M anipulation  |
\*---------------------------------------------------------------------------*/
FoamFile
{
    format      ascii;
    class       volScalarField;
    location    "189";
    object      k;
}
// * * * * * * * * * * * * * * * * * * * * * * * * * * * * * * * * * * * * * //

dimensions      [0 2 -2 0 0 0 0];

internalField   nonuniform List<scalar> 
272944
(
0.00391478
0.00463786
0.00441087
0.00438946
0.00440101
0.00440942
0.00441584
0.00442871
0.00444268
0.00446434
0.00448165
0.00450092
0.00452198
0.00454027
0.004571
0.00459325
0.00462871
0.00465639
0.00469084
0.0047311
0.00476726
0.00480795
0.00485202
0.00488473
0.00489655
0.00490205
0.00490608
0.00491355
0.00491581
0.00491732
0.00491338
0.00488128
0.00488126
0.0049183
0.00491238
0.00491088
0.00490859
0.00491096
0.00490695
0.00489652
0.00487982
0.00485202
0.0048129
0.00477246
0.00473316
0.00469601
0.00466107
0.00462908
0.00459863
0.0045661
0.00454093
0.00451696
0.00449591
0.00448175
0.00446409
0.00444861
0.00443352
0.00442137
0.00440389
0.00439564
0.00438958
0.00441112
0.00463787
0.00391473
0.00490583
0.00210737
0.00162982
0.00155413
0.00154078
0.00153319
0.00151342
0.00150438
0.0014896
0.0014734
0.00146051
0.00144009
0.0014184
0.00139474
0.0013734
0.00135058
0.00132964
0.0013037
0.00127624
0.00124705
0.00121841
0.0011872
0.00116105
0.00114247
0.00113167
0.00112698
0.00112361
0.00112138
0.00111943
0.00111526
0.00111753
0.00113567
0.00113225
0.0011175
0.00111522
0.00111944
0.00111802
0.0011203
0.00112696
0.00113163
0.00114248
0.00116105
0.00118719
0.0012185
0.0012438
0.00127262
0.00129973
0.00132932
0.0013539
0.0013733
0.00139996
0.00141905
0.00144123
0.00145579
0.0014731
0.00149289
0.00150166
0.00151476
0.00152821
0.00154049
0.00155174
0.00163163
0.00210741
0.00490041
0.00461682
0.00150963
0.00103177
0.000975078
0.000974167
0.000973
0.000967826
0.000965613
0.000965762
0.000962886
0.000958671
0.000955252
0.000948267
0.000948264
0.000944718
0.000941047
0.000933892
0.000929999
0.000929458
0.000925545
0.000921804
0.000918471
0.000912231
0.00091011
0.000912699
0.000908931
0.0009122
0.000908697
0.000908543
0.000912032
0.000908542
0.000912843
0.000909342
0.000908469
0.000908521
0.000912048
0.000912104
0.000912239
0.000912378
0.000912671
0.000913578
0.000912172
0.000914993
0.000921802
0.000925512
0.000929455
0.000929971
0.000933871
0.00094106
0.000944727
0.000948381
0.000948386
0.000955267
0.000958531
0.000959442
0.000962713
0.000965312
0.00097123
0.000969486
0.000974144
0.000975145
0.00102901
0.00151232
0.00461217
0.00456596
0.00139445
0.000946276
0.000901787
0.000899903
0.000899802
0.000903001
0.000899437
0.000899257
0.000902578
0.000902359
0.000898842
0.000902134
0.000898616
0.000902065
0.000898509
0.00089849
0.000901941
0.000898464
0.00089857
0.000901997
0.000898634
0.000898629
0.000898747
0.000902376
0.000902467
0.000902599
0.000902698
0.000902724
0.00090278
0.000899391
0.000899347
0.000902825
0.000902831
0.000899298
0.0008993
0.000899228
0.000902585
0.00089896
0.00089884
0.000898732
0.000902166
0.000902092
0.000898536
0.000902008
0.000898549
0.000901939
0.000898545
0.00089849
0.000898543
0.000902113
0.000898663
0.000898821
0.000902323
0.000902563
0.000902708
0.000899439
0.00090304
0.000903189
0.000903389
0.000905227
0.00094642
0.00139442
0.00456627
0.00467097
0.00132509
0.000933076
0.000897993
0.000896771
0.000900209
0.000896598
0.000896578
0.000896581
0.000900161
0.000896756
0.00090028
0.000896932
0.000896986
0.000900622
0.00090073
0.000900901
0.000897537
0.000897795
0.000901362
0.000898033
0.000898211
0.000898399
0.00090205
0.000898707
0.000902355
0.000899046
0.000902592
0.000899252
0.000899224
0.000899274
0.000902823
0.000899316
0.000902787
0.000902742
0.000902692
0.000902571
0.000899031
0.000898846
0.000902225
0.000902068
0.000898476
0.000898283
0.000901537
0.000901356
0.000897705
0.000897544
0.000897362
0.000897301
0.000900577
0.000897043
0.000900371
0.000900284
0.000900202
0.000896634
0.000900109
0.000896594
0.000896661
0.000896664
0.000896832
0.000901528
0.000933084
0.00132513
0.00467113
0.00457605
0.00137696
0.00094461
0.000898139
0.000900148
0.000900073
0.000899955
0.000896548
0.000896477
0.00090006
0.000896591
0.000896783
0.000900307
0.000900478
0.000897089
0.000897315
0.000897506
0.000897618
0.000901302
0.000901475
0.000898265
0.000901919
0.000902104
0.000898781
0.00089902
0.000899113
0.000899255
0.000899395
0.000902964
0.000899636
0.000899612
0.000899638
0.000899606
0.000903093
0.000903042
0.000899575
0.000902901
0.000899245
0.000902617
0.000902444
0.000902303
0.000902076
0.000898485
0.000901683
0.000898018
0.00089781
0.000901132
0.000897517
0.000900744
0.000900619
0.00089694
0.000896883
0.000896692
0.000900116
0.000896621
0.000899964
0.000900002
0.000899952
0.000896596
0.000896668
0.000898194
0.000941264
0.00137382
0.00458154
0.00444531
0.00145298
0.000956046
0.000902252
0.000896615
0.000896537
0.00089641
0.000899962
0.000896519
0.000896523
0.000896594
0.000896719
0.000896923
0.000900489
0.000897245
0.000897377
0.000901056
0.000897857
0.000901481
0.000898185
0.000898488
0.000902175
0.000902396
0.000902609
0.000902794
0.000903
0.000903149
0.000903294
0.000903382
0.000903521
0.00090357
0.000903549
0.000900078
0.000900075
0.00090005
0.000903397
0.000903312
0.000899724
0.00089945
0.000902775
0.000902615
0.000902346
0.000902158
0.000901938
0.000901708
0.00090145
0.000901237
0.000901061
0.000900877
0.000900652
0.000897065
0.000900362
0.000896795
0.00089659
0.000900043
0.000896456
0.000896418
0.000896395
0.000896457
0.00089654
0.000898727
0.000959333
0.00145257
0.00445078
0.00443515
0.00146923
0.000959785
0.00090246
0.000896621
0.000899956
0.000896514
0.000899955
0.000900018
0.000900082
0.000900213
0.000900323
0.000896961
0.000900633
0.000900848
0.000901043
0.000897862
0.000901463
0.000898322
0.0008985
0.000898778
0.000902524
0.000902804
0.000903021
0.000899742
0.000903472
0.000900178
0.000900301
0.000900453
0.000904108
0.000900736
0.000900723
0.000900798
0.000904159
0.000900571
0.000903992
0.000903833
0.000903646
0.000899954
0.000903221
0.000902991
0.000899297
0.000899069
0.000898806
0.000898472
0.000898221
0.000898066
0.000897742
0.000901018
0.000900843
0.000897125
0.000900466
0.000900319
0.000896668
0.000900072
0.000900008
0.000896468
0.000896499
0.000899957
0.000900039
0.000902452
0.000959778
0.0014731
0.0044401
0.00444812
0.00146412
0.000962176
0.00089897
0.000896555
0.00089647
0.00089993
0.000896498
0.000896624
0.000900168
0.00090027
0.000896907
0.000897155
0.000900796
0.000897496
0.000897757
0.000901511
0.000898362
0.000902045
0.000902363
0.000902627
0.000899533
0.00090326
0.000900102
0.000900294
0.000900645
0.000904297
0.000901072
0.000901246
0.000904817
0.00090493
0.000904942
0.000904941
0.00090145
0.000901303
0.000901168
0.000904521
0.000904351
0.000900571
0.000900417
0.000900147
0.000903245
0.000899495
0.000899176
0.000898834
0.000898646
0.00090178
0.000898103
0.000901273
0.00090099
0.000897347
0.000897082
0.000896886
0.000896804
0.000900124
0.000896535
0.000899981
0.00089993
0.000896551
0.000896614
0.000898879
0.00096218
0.00146406
0.00444816
0.00446168
0.00145614
0.000959978
0.000902326
0.000900142
0.000896535
0.000900044
0.000900064
0.000900125
0.000896753
0.000896885
0.000897083
0.000897261
0.000897496
0.000897744
0.000898098
0.000898394
0.000898716
0.000899102
0.000902839
0.000899736
0.000900076
0.000900464
0.000900733
0.000901019
0.000901345
0.000905164
0.000901892
0.000902102
0.000905732
0.000905812
0.000905866
0.000905899
0.00090231
0.000902259
0.000902053
0.000905385
0.000905174
0.000901358
0.000904581
0.000904257
0.000903926
0.000903548
0.000903174
0.000899335
0.00090249
0.000898697
0.000901829
0.000901527
0.000901251
0.000897535
0.000900793
0.000897073
0.000896902
0.000900285
0.000896632
0.000900093
0.000900049
0.000900062
0.000896597
0.000898797
0.000959936
0.00145289
0.00446173
0.00447748
0.00143805
0.000953981
0.000902231
0.000900178
0.000896603
0.000896668
0.000896693
0.000900258
0.000896882
0.000897156
0.00090074
0.000897511
0.000897746
0.000898044
0.000898393
0.000898709
0.000899138
0.000902947
0.00089993
0.000900375
0.000900744
0.000904608
0.000905041
0.000901902
0.000902337
0.00090613
0.000906384
0.000906685
0.000906847
0.000903441
0.000903572
0.000903504
0.000903523
0.000906854
0.000903153
0.000906427
0.000906125
0.000902322
0.0009054
0.000905039
0.000904629
0.000900761
0.000903803
0.000899951
0.000899579
0.000902603
0.000902238
0.000898458
0.000901588
0.000901296
0.000901006
0.00089729
0.000900542
0.000900408
0.000896758
0.00089675
0.000900117
0.000900124
0.000896736
0.000902212
0.000957239
0.00143757
0.00447231
0.00449065
0.00142183
0.000951074
0.000902135
0.000896839
0.000900232
0.000900251
0.00090032
0.000896925
0.000897148
0.000900753
0.000897528
0.000901304
0.000898082
0.000898468
0.000902284
0.000899211
0.000903106
0.000900059
0.000900543
0.000904527
0.000905042
0.000905548
0.000906018
0.000903047
0.000903423
0.000903755
0.000904194
0.000907965
0.000908161
0.000904922
0.000904978
0.000904891
0.000904859
0.000904668
0.000904549
0.000904116
0.00090383
0.000906911
0.000902963
0.000906038
0.000905495
0.000905041
0.000901095
0.000900529
0.000903589
0.000899735
0.000899217
0.000898773
0.000901933
0.000901596
0.000897781
0.000901017
0.000900791
0.000897101
0.000900398
0.000900323
0.000900245
0.000900194
0.000900261
0.000898642
0.00095106
0.00142191
0.0044906
0.00451657
0.00140996
0.00095166
0.000902081
0.000900375
0.000900311
0.00090037
0.00089696
0.000900568
0.000897356
0.000901007
0.000897791
0.000901591
0.000898491
0.000902366
0.000902736
0.000899816
0.000903748
0.000900791
0.00090128
0.000901914
0.000905979
0.000906573
0.000907159
0.000907695
0.000904738
0.000905157
0.000905595
0.000905978
0.00090626
0.000909949
0.000906634
0.000906592
0.000909987
0.000906345
0.000909511
0.000905625
0.000908702
0.000908255
0.000904229
0.000907124
0.000903094
0.000905981
0.000901866
0.00090136
0.000904245
0.00090372
0.000903245
0.000899333
0.000898844
0.000898415
0.000898052
0.000897783
0.000901023
0.000900757
0.000900608
0.000897043
0.000900356
0.000900286
0.00089683
0.000898666
0.000948481
0.00141077
0.00451135
0.00453442
0.00138765
0.000944718
0.000898607
0.000900498
0.000900474
0.000900479
0.000897156
0.00090081
0.000897499
0.000897844
0.000898106
0.000898554
0.000902334
0.000902798
0.000899894
0.000900454
0.000904439
0.000901575
0.000902291
0.000906364
0.000907087
0.000907753
0.00090846
0.000909169
0.00090632
0.000906835
0.000907401
0.000907973
0.0009083
0.000908503
0.000912105
0.000908664
0.000908524
0.000911751
0.000908005
0.000907424
0.0009104
0.000909761
0.000909135
0.000905073
0.000907715
0.00090709
0.000902919
0.000902273
0.000905062
0.000904432
0.000903839
0.000899837
0.000902809
0.000898842
0.000898447
0.000901595
0.000901275
0.000897591
0.00090081
0.000900637
0.000896994
0.000896946
0.000896956
0.000898607
0.000948247
0.00138801
0.00453949
0.00456489
0.00136581
0.00094108
0.000898481
0.000900601
0.000897172
0.000897239
0.000900852
0.000901017
0.000897843
0.000901577
0.000901966
0.000902342
0.000899316
0.000903348
0.000903891
0.000904548
0.000905176
0.000902406
0.00090668
0.000907466
0.000908305
0.000909114
0.00091001
0.000910837
0.000908153
0.000908911
0.00090961
0.000913681
0.000910716
0.000910872
0.000911075
0.000914552
0.000914432
0.000914192
0.000913656
0.000909682
0.000908916
0.000908231
0.000907278
0.000909992
0.000905767
0.00090826
0.000904047
0.000906664
0.000905897
0.000901797
0.000901101
0.000903892
0.000903298
0.00089937
0.000902311
0.000898453
0.00089804
0.000897744
0.000901022
0.000897316
0.00089717
0.000900601
0.000900597
0.000898503
0.000941157
0.00136517
0.00455972
0.00458784
0.00134322
0.000940821
0.000898542
0.0008973
0.00090073
0.00089743
0.000901006
0.000897761
0.000898026
0.000898432
0.000902325
0.000899293
0.000899886
0.000903894
0.000904593
0.000905293
0.000906014
0.000903397
0.0009078
0.000908763
0.000906171
0.000907188
0.000908246
0.000909406
0.000913876
0.000911343
0.000915685
0.000916481
0.000917084
0.000913903
0.000914147
0.00091415
0.00091401
0.000917131
0.000916485
0.000915662
0.000914802
0.000913817
0.000909324
0.000908265
0.000910769
0.000906295
0.000905273
0.000904312
0.000906896
0.000906085
0.000905268
0.000901119
0.000903865
0.000899838
0.000902772
0.000902304
0.000898385
0.000898057
0.000901271
0.000897554
0.00090087
0.000897271
0.000897239
0.000901981
0.000937556
0.00134659
0.00458785
0.0046228
0.00131859
0.000933616
0.000901954
0.000897385
0.000897413
0.000897622
0.000897761
0.000901526
0.000898355
0.000902265
0.000902753
0.00090325
0.00090043
0.000904529
0.000905319
0.00090606
0.000903527
0.000904489
0.000909068
0.000910211
0.000907888
0.000909091
0.000910376
0.000911836
0.000916536
0.000914186
0.000915447
0.000916371
0.000920748
0.000917752
0.000921666
0.000921674
0.000921362
0.000920793
0.000919974
0.000915399
0.000914291
0.000912961
0.000911708
0.000910384
0.000909088
0.000911421
0.000910213
0.000909069
0.000907975
0.000907014
0.000902669
0.000901805
0.000904503
0.000903852
0.000899803
0.000899178
0.00089878
0.000901827
0.000901525
0.000901277
0.000901064
0.000900953
0.000900903
0.000898543
0.000937209
0.00132257
0.00462287
0.0046506
0.0013019
0.000933455
0.00089847
0.000901017
0.000897711
0.000901245
0.000898001
0.000901758
0.00089875
0.00090259
0.000903164
0.000903705
0.000901003
0.000901742
0.000906054
0.000903567
0.000908055
0.000905697
0.000906968
0.00091185
0.000909737
0.000911331
0.000912941
0.000918096
0.000916226
0.000917888
0.000923049
0.000920856
0.000921999
0.00092278
0.000926811
0.000926833
0.000922813
0.000925638
0.000920851
0.000923035
0.000921465
0.000916266
0.000914603
0.000912903
0.000911359
0.000913336
0.000908396
0.000906966
0.000905692
0.000904601
0.000903583
0.000902525
0.000905181
0.000904418
0.00090026
0.000899611
0.000899108
0.000902185
0.000898319
0.000901476
0.000897765
0.000901141
0.000901075
0.000901989
0.000930286
0.00130229
0.00465074
0.0046852
0.00127092
0.000926056
0.00090198
0.000897733
0.000901336
0.00090149
0.000898225
0.000898555
0.000898998
0.000899569
0.000900165
0.000900807
0.000905024
0.000905867
0.000903477
0.000907988
0.000905746
0.00090708
0.000908623
0.0009137
0.000911996
0.000917363
0.000915952
0.000918099
0.000920323
0.000922635
0.00092837
0.000930373
0.000932045
0.000929606
0.000930155
0.000933723
0.000933248
0.000932109
0.000926862
0.000928363
0.000922551
0.000920321
0.000921634
0.000915996
0.000913948
0.000915525
0.000910211
0.000908661
0.000907076
0.000905783
0.000908012
0.000903507
0.000905897
0.000901574
0.000904241
0.000900185
0.000902956
0.000902512
0.000902083
0.000901767
0.000897997
0.000901316
0.000901241
0.000901986
0.000929667
0.00127122
0.00468999
0.00472756
0.00124678
0.000925632
0.000901973
0.000901382
0.000901529
0.000898263
0.000898576
0.000898907
0.000902858
0.000903433
0.000904043
0.000904807
0.00090568
0.000903205
0.000904333
0.00090565
0.000907101
0.000912029
0.000910345
0.000915864
0.000917969
0.000916904
0.000923085
0.000922432
0.000929059
0.000928703
0.00093557
0.000938535
0.000937545
0.000943076
0.000940308
0.000940261
0.000939422
0.000941233
0.000938592
0.000935557
0.000928702
0.000929128
0.000925995
0.000919557
0.000916969
0.000918016
0.000912442
0.000913849
0.000912107
0.00091046
0.000909077
0.000907789
0.000903291
0.00090567
0.000901353
0.000904044
0.0009
0.000899352
0.000898877
0.000901977
0.000901686
0.000898002
0.000901389
0.000898479
0.000922248
0.00124656
0.0047218
0.00476212
0.00121989
0.000918551
0.000898523
0.000901577
0.000901725
0.000898528
0.00090228
0.00090269
0.000899808
0.00090379
0.000901089
0.000901966
0.000906357
0.00090395
0.000905294
0.000910212
0.00091185
0.000913693
0.000912418
0.000918206
0.000920985
0.000924058
0.000923928
0.000927894
0.000932314
0.000937098
0.000945778
0.000950832
0.000952868
0.000958431
0.000964689
0.00096114
0.00096216
0.000952929
0.000950789
0.000945759
0.000937106
0.000935985
0.000931573
0.000923996
0.000924082
0.000917488
0.000918227
0.000912439
0.000913702
0.000908383
0.000906782
0.000905311
0.00090748
0.000902863
0.00090533
0.00090105
0.000903824
0.000903183
0.00090269
0.000898764
0.000901905
0.000898191
0.000898052
0.000898505
0.000918571
0.00121627
0.0047573
0.00479993
0.00118809
0.000915136
0.000898584
0.000898245
0.000901935
0.000902163
0.000899131
0.000902979
0.000903591
0.000904219
0.000901503
0.000902437
0.00090354
0.000904925
0.000909774
0.000911456
0.000913329
0.000915536
0.000918021
0.000917467
0.000924356
0.000928433
0.00092954
0.000935156
0.000941726
0.000949346
0.000962338
0.000976099
0.000998863
0.00102352
0.0010382
0.00104169
0.00102354
0.000995151
0.000972341
0.000962326
0.000952954
0.00094541
0.000938816
0.000933177
0.000928472
0.000924398
0.000920991
0.000918048
0.000915514
0.000913303
0.000911376
0.000909741
0.000908271
0.000903623
0.000902548
0.000901524
0.000904236
0.000903549
0.000902986
0.000899022
0.00090217
0.000898417
0.000901741
0.000898641
0.000918671
0.00118814
0.00480485
0.00484242
0.00116495
0.00091228
0.000902143
0.000901917
0.000902079
0.00089889
0.000902804
0.000903306
0.000903946
0.000904649
0.000902015
0.000903061
0.000904373
0.000909174
0.000910814
0.000912661
0.000911389
0.000917408
0.000920446
0.00092405
0.000928441
0.000933751
0.000940365
0.000948615
0.000959
0.000970055
0.000997648
0.00105644
0.00117048
0.00133571
0.00145131
0.00145047
0.0013346
0.00117006
0.00105604
0.00100136
0.00097011
0.000958948
0.000944897
0.00094036
0.000933773
0.000924839
0.000920613
0.000916874
0.000913842
0.000914801
0.0009092
0.000910733
0.00090569
0.000904224
0.000906519
0.000905524
0.000901157
0.000903896
0.000899873
0.000899258
0.000902348
0.000902115
0.000901917
0.000898659
0.00091576
0.00116496
0.00484232
0.00488053
0.00113848
0.000913545
0.000898753
0.000898574
0.000902303
0.000899126
0.000903049
0.000900123
0.000904265
0.000901601
0.000906002
0.000907182
0.000908498
0.000910005
0.000908293
0.000910525
0.000916459
0.000919513
0.000923133
0.000927556
0.000933169
0.000940354
0.000949732
0.000962375
0.000978355
0.00102435
0.00113406
0.00155556
0.00303727
0.00570966
0.00748757
0.00760211
0.00565861
0.00305471
0.00153956
0.00112958
0.00102416
0.000978308
0.000962352
0.000949721
0.000940333
0.000933224
0.000927574
0.000919583
0.000915967
0.000913011
0.000913933
0.000908398
0.000910012
0.000905043
0.000903719
0.000902574
0.000901541
0.000900725
0.00090354
0.00089962
0.00089908
0.000902304
0.000902071
0.000902263
0.00091359
0.00113849
0.00488548
0.0048964
0.00113178
0.000912725
0.000902352
0.000902207
0.000902456
0.000902826
0.000903261
0.000903881
0.000904608
0.000905454
0.000906526
0.000907724
0.000905714
0.000910849
0.000909353
0.000911841
0.000918139
0.000918059
0.000922517
0.000928001
0.000935123
0.000945012
0.000962429
0.00098126
0.00103238
0.00119236
0.00250047
0.0104687
0.0258607
0.039033
0.0459938
0.0459514
0.0389703
0.0255748
0.0103066
0.00249485
0.00118931
0.00103213
0.000984923
0.00095875
0.000944925
0.00093514
0.00093158
0.000926008
0.000921689
0.000918153
0.000911854
0.00090933
0.000910867
0.00090577
0.000907701
0.000906469
0.000905447
0.000901086
0.000900414
0.000903253
0.000899305
0.000902465
0.000898714
0.000898862
0.000912689
0.00112835
0.00489638
0.00490193
0.00112702
0.000912437
0.000898973
0.000902358
0.000902658
0.000903015
0.000903489
0.000904116
0.000904883
0.000905817
0.00090347
0.00090475
0.000909754
0.000908229
0.000913843
0.000913122
0.000919861
0.000920466
0.000929194
0.000936048
0.000941776
0.000959102
0.000978497
0.0010359
0.00121447
0.00373507
0.022337
0.0557093
0.0762238
0.0842678
0.0866421
0.0866941
0.0843357
0.076185
0.055536
0.0222957
0.00365581
0.00121201
0.00103186
0.000982121
0.000955355
0.000941788
0.000932447
0.000929188
0.00092397
0.000919883
0.000916582
0.000910499
0.000911708
0.000909812
0.000908232
0.000903503
0.00090235
0.000904847
0.000904125
0.000900006
0.000902986
0.000902642
0.000902341
0.000902465
0.000909032
0.00112698
0.00490192
0.00490599
0.00112028
0.000908755
0.000899076
0.00090248
0.000902755
0.000899757
0.000903683
0.00090437
0.000901731
0.000902667
0.000907285
0.000905344
0.000910397
0.000912411
0.000911399
0.000917784
0.000921484
0.00092616
0.000932308
0.000940736
0.000952931
0.000969858
0.00102369
0.00119027
0.00373428
0.0284053
0.0707838
0.0867852
0.0925713
0.0936916
0.0934986
0.0936151
0.0938723
0.0926013
0.0866945
0.0706505
0.0282481
0.00356335
0.00118892
0.00102346
0.000969847
0.000952897
0.000937056
0.000932266
0.000922608
0.00091792
0.000914278
0.000914806
0.000912397
0.000906988
0.0009053
0.00090729
0.000902649
0.000901654
0.000904352
0.000903684
0.000899657
0.000902746
0.000902465
0.000902605
0.000912264
0.0011236
0.00491092
0.00490858
0.00111804
0.000912106
0.000899167
0.000899117
0.000902921
0.000903333
0.00090389
0.000904556
0.000905419
0.000902991
0.000904212
0.000909136
0.000907491
0.000913105
0.00091578
0.000919022
0.00092312
0.000928457
0.000932079
0.000945892
0.000962421
0.000997604
0.00113356
0.00252564
0.0223473
0.0707748
0.0898326
0.0942047
0.0926119
0.0897509
0.0877476
0.0877365
0.0898428
0.0926828
0.0941168
0.0896461
0.0705838
0.0219302
0.00248531
0.00112901
0.00100125
0.000958737
0.00094218
0.000931998
0.00092489
0.000919502
0.000919004
0.000915771
0.000913107
0.000907569
0.000909174
0.000904269
0.000902933
0.000905402
0.000901069
0.000900417
0.000899786
0.000902896
0.000899101
0.000899171
0.000908648
0.00111811
0.00491348
0.0049158
0.00111949
0.000908552
0.00089926
0.00090267
0.000899484
0.000899917
0.000900549
0.000901268
0.00090208
0.000903168
0.000904532
0.000906009
0.000907942
0.000910146
0.000912951
0.000916479
0.000920989
0.000930389
0.000935025
0.000950896
0.000976247
0.00106052
0.00155831
0.0104108
0.0556446
0.0867886
0.094258
0.0918776
0.0852356
0.0737948
0.0720099
0.0699548
0.0747686
0.0853887
0.0917788
0.0940692
0.0865816
0.0552094
0.0102137
0.00153596
0.00105626
0.000972436
0.00094718
0.000934947
0.000926788
0.000924482
0.000919983
0.000913011
0.000913703
0.000911443
0.000906056
0.00090447
0.000906686
0.000902134
0.000904723
0.000904023
0.00090343
0.000899569
0.000902697
0.000902771
0.000908568
0.00111609
0.00491084
0.00491237
0.00111526
0.000908539
0.000902804
0.000899334
0.000899598
0.000903505
0.000900668
0.000901419
0.000902291
0.000906887
0.000908251
0.000906376
0.00090827
0.000910688
0.000917107
0.000917272
0.000925672
0.00092849
0.000937606
0.000952917
0.0009954
0.00117203
0.00305712
0.0257573
0.0761606
0.0926717
0.0927156
0.0853146
0.0730464
0.0602251
0.0528829
0.0433324
0.050992
0.0735919
0.0852445
0.0925276
0.0924641
0.0759917
0.0253944
0.00304506
0.00117
0.000995263
0.000952912
0.000937603
0.000932098
0.00092565
0.000917247
0.00091706
0.000910681
0.000911801
0.000906354
0.000908226
0.00090341
0.000905735
0.000901376
0.000904112
0.000900032
0.000899552
0.000899244
0.000899386
0.000912059
0.0011153
0.00491237
0.00491829
0.00111422
0.000908483
0.000902887
0.000902839
0.000903133
0.000903621
0.000904222
0.000904955
0.000902403
0.000906994
0.000908423
0.000910046
0.00090856
0.000910998
0.000917542
0.00092142
0.000926421
0.000929666
0.000943152
0.000958553
0.00102767
0.00134078
0.00564851
0.0391014
0.0842089
0.0937779
0.0897489
0.0750243
0.0431131
0.0284791
0.0161509
0.0110303
0.0299418
0.0519974
0.0736987
0.0893264
0.0935851
0.0841986
0.0386306
0.00564169
0.00133279
0.00102707
0.000958587
0.00094311
0.000929661
0.000926421
0.000917878
0.00091397
0.000910979
0.00091202
0.000906605
0.000908386
0.000907027
0.000905886
0.000904941
0.000900755
0.000903552
0.000899637
0.000902819
0.000902869
0.000908499
0.00111427
0.00491828
0.00488129
0.00113567
0.000909351
0.000899372
0.000899427
0.00090315
0.000900217
0.000904252
0.000905028
0.000905941
0.000903556
0.000904941
0.000906633
0.000908766
0.000914631
0.000917771
0.000921709
0.000926884
0.000933795
0.000943926
0.000961155
0.00104235
0.00146128
0.00758619
0.0460616
0.0865862
0.0935603
0.0878917
0.0747509
0.0430622
0.0118028
0.00707383
0.00688534
0.0105162
0.0377286
0.065274
0.0867468
0.0930912
0.0865177
0.0456609
0.00752731
0.0014437
0.00104143
0.000961174
0.000940322
0.000933781
0.000923282
0.000918077
0.000917742
0.000914672
0.000912172
0.000906662
0.000908454
0.000903674
0.00090242
0.000901464
0.000900699
0.000900094
0.000903111
0.000902817
0.00089943
0.000909375
0.00113574
0.00488125
0.00488129
0.00113231
0.000912853
0.000902887
0.000899399
0.000899641
0.000900142
0.00090419
0.000901529
0.000905951
0.000907087
0.00090847
0.000906593
0.000908662
0.000911194
0.000917712
0.000918121
0.00092688
0.00093379
0.000943942
0.000964823
0.00103877
0.00146031
0.00757434
0.0460181
0.0865638
0.0936183
0.0880791
0.0741814
0.0538931
0.0195976
0.00732865
0.00713631
0.014075
0.0433057
0.0641981
0.0868264
0.0931931
0.086576
0.0456593
0.00738779
0.00144291
0.00103786
0.000964755
0.000943885
0.000933773
0.000926832
0.000918105
0.000917745
0.000914676
0.000912174
0.000906664
0.000908462
0.000907082
0.000902514
0.000901481
0.000900705
0.000900164
0.000899701
0.000902841
0.000899425
0.000912875
0.00113572
0.00488124
0.00491336
0.00111754
0.000908495
0.000902871
0.000899324
0.000903167
0.000903603
0.000900666
0.000901456
0.000905901
0.000907022
0.000904855
0.000906557
0.000912056
0.000914523
0.000917562
0.000921385
0.000922815
0.000929671
0.000943149
0.000958618
0.00102753
0.00134096
0.00575703
0.038936
0.0841653
0.0940889
0.0902425
0.0777606
0.0547857
0.0422946
0.0138463
0.0130196
0.0369201
0.0493309
0.0737842
0.0894404
0.0937232
0.0842322
0.0387139
0.00563951
0.00133357
0.00102344
0.000962168
0.000943109
0.000929741
0.000922818
0.000921388
0.000917508
0.000914508
0.000912045
0.000906541
0.000904864
0.000903476
0.000902333
0.000904947
0.000904203
0.000903605
0.000903145
0.000899313
0.000902827
0.000908509
0.0011142
0.00491827
0.00491733
0.00111861
0.000908609
0.000899389
0.000902798
0.000903105
0.000900015
0.00090066
0.000901334
0.000902324
0.000903376
0.000904822
0.000909861
0.000908348
0.000910707
0.000917066
0.000917231
0.000922065
0.000932114
0.00094129
0.000956641
0.00099529
0.00117046
0.00311466
0.025705
0.0760102
0.0927002
0.093082
0.0855914
0.0651212
0.0601341
0.0410747
0.0405939
0.0481271
0.0737458
0.0853769
0.0926578
0.0925211
0.075965
0.0254072
0.00304058
0.00117056
0.000998853
0.000956632
0.000937685
0.000932132
0.000925655
0.000920845
0.000917137
0.000914208
0.000911826
0.000909831
0.000908247
0.000906868
0.000905746
0.000901378
0.000904119
0.000900037
0.000903059
0.000902778
0.000902845
0.000912062
0.00111531
0.0049173
0.00491088
0.00111944
0.000908547
0.000899322
0.000902726
0.000903036
0.000903457
0.000904037
0.000904766
0.00090563
0.000903241
0.000904587
0.000909553
0.000907961
0.000913652
0.000912932
0.000916407
0.000920939
0.000926824
0.00093861
0.000947253
0.000976187
0.00106054
0.00155897
0.0102805
0.055456
0.0866468
0.0943705
0.0921763
0.0852601
0.0749887
0.0675359
0.0704352
0.0752338
0.0856377
0.0919631
0.0941472
0.086558
0.0551782
0.0102416
0.00153707
0.00105975
0.000976076
0.000947179
0.000935019
0.000926799
0.000920867
0.00091997
0.00091307
0.000913649
0.000908015
0.000906043
0.00090446
0.000903229
0.000905631
0.000904748
0.000904022
0.000903447
0.000902974
0.000899195
0.000902778
0.000912077
0.00111945
0.00491577
0.0049086
0.00111801
0.000908712
0.00089918
0.000902596
0.000902916
0.000899829
0.00090385
0.000904557
0.000905383
0.000902977
0.000907696
0.000905729
0.000910968
0.000909651
0.000915707
0.000915406
0.000923091
0.000928404
0.00093561
0.000945813
0.000962377
0.00100151
0.00113506
0.00253872
0.0222051
0.0703893
0.0896644
0.0943607
0.0928984
0.0901044
0.0876695
0.0881038
0.0900375
0.0927963
0.0941534
0.0895639
0.0703482
0.021873
0.00244884
0.00113308
0.00099764
0.00095859
0.000945754
0.000935565
0.000924791
0.000919455
0.000918919
0.000912296
0.000909611
0.000907421
0.000905641
0.000904158
0.000902908
0.000905427
0.000904584
0.000903882
0.000903318
0.000899399
0.000899088
0.000902695
0.000908675
0.00112139
0.00490861
0.00490604
0.0011203
0.000912253
0.000902603
0.000899011
0.000902742
0.000899739
0.000903691
0.000900845
0.000901693
0.000906165
0.000907337
0.000908769
0.000910463
0.000912377
0.00091136
0.000917743
0.000917895
0.000922623
0.000932373
0.000940764
0.000949379
0.000973852
0.00102063
0.00119348
0.00364572
0.0282692
0.0703252
0.0865693
0.092654
0.0938957
0.093431
0.0936083
0.0937759
0.0925061
0.0865191
0.0703205
0.0278094
0.00363762
0.00119137
0.00102041
0.000970091
0.000953005
0.000940767
0.000932316
0.000926203
0.000921502
0.00091779
0.000911329
0.000912408
0.000906925
0.000905209
0.000907328
0.00090266
0.00090517
0.000904371
0.000903699
0.000899743
0.000899256
0.0009025
0.000899087
0.000912243
0.00112362
0.00490603
0.00490695
0.00112695
0.000912438
0.000898981
0.000902333
0.000899113
0.000899463
0.000900085
0.000904115
0.000901367
0.000902351
0.000906892
0.000904791
0.000906357
0.000908238
0.000910404
0.000916561
0.000916287
0.00092395
0.000929146
0.000936019
0.000945431
0.000958982
0.000978343
0.00103632
0.00121677
0.00363043
0.0220626
0.0551609
0.0758436
0.0840859
0.0864584
0.0865059
0.0840792
0.0758458
0.0550638
0.0218366
0.00355544
0.00121296
0.00103211
0.000982057
0.000958966
0.000941747
0.00093242
0.00092552
0.000923936
0.000919855
0.000913084
0.00091387
0.000908273
0.000909802
0.000904751
0.000903428
0.000902353
0.000901441
0.00090067
0.000903502
0.000903012
0.000902603
0.000902387
0.000902465
0.00090896
0.00112362
0.00490198
0.00490147
0.00113162
0.000909283
0.000898918
0.000898709
0.00089901
0.000899299
0.000903229
0.000900345
0.000901088
0.000905407
0.000903096
0.000907731
0.0009092
0.000910863
0.000909379
0.000915247
0.000914627
0.000918099
0.000922529
0.000931581
0.000938822
0.000948578
0.00095856
0.000981127
0.00103205
0.00119298
0.00252535
0.0101886
0.025532
0.0387117
0.0456728
0.0456498
0.0387311
0.0254235
0.010229
0.00247247
0.00119008
0.00103174
0.000984905