/*--------------------------------*- C++ -*----------------------------------*\
  =========                 |
  \\      /  F ield         | OpenFOAM: The Open Source CFD Toolbox
   \\    /   O peration     | Website:  https://openfoam.org
    \\  /    A nd           | Version:  11
     \\/     M anipulation  |
\*---------------------------------------------------------------------------*/
FoamFile
{
    format      ascii;
    class       volScalarField;
    location    "189";
    object      nut;
}
// * * * * * * * * * * * * * * * * * * * * * * * * * * * * * * * * * * * * * //

dimensions      [0 2 -1 0 0 0 0];

internalField   nonuniform List<scalar> 
272944
(
0.00308897
0.00432338
0.00428051
0.00428792
0.00429709
0.00430469
0.00430871
0.00431961
0.00433053
0.00434908
0.00436275
0.00437822
0.00439509
0.00440912
0.00443498
0.00445246
0.00448259
0.00450511
0.00453416
0.0045688
0.00459962
0.00463502
0.00467406
0.00470273
0.00471217
0.00471609
0.00471875
0.00472495
0.00472629
0.00472721
0.00472276
0.00469166
0.00469164
0.00472748
0.00472243
0.00472151
0.00472015
0.0047234
0.00472075
0.00471208
0.00469793
0.00467398
0.00463971
0.00460455
0.00457071
0.00453905
0.00450955
0.00448284
0.00445757
0.00443011
0.00440964
0.00439009
0.00437323
0.00436272
0.00434871
0.00433619
0.00432417
0.00431398
0.00429916
0.00429172
0.00428791
0.00428063
0.00432328
0.00308881
0.00449141
0.0158727
0.0131153
0.0126601
0.0126132
0.0125709
0.012438
0.0123542
0.0122972
0.0121593
0.0121198
0.0119512
0.0118413
0.0116485
0.0115098
0.0113929
0.0112597
0.0110835
0.010894
0.0106894
0.0104864
0.0102284
0.0100407
0.00993998
0.00986188
0.00982664
0.00980106
0.00978405
0.00973916
0.00970348
0.00975371
0.00984105
0.00981129
0.00972359
0.00970303
0.00973925
0.00972478
0.00977226
0.00979647
0.00983127
0.00993986
0.0100406
0.0102283
0.0104871
0.0106608
0.0108308
0.0110498
0.0112237
0.0114209
0.0115088
0.0116917
0.0118131
0.0119938
0.0120469
0.0121903
0.0123241
0.012332
0.0124151
0.0124962
0.0125769
0.0126743
0.0130962
0.0158406
0.00448633
0.00443957
0.0123159
0.00916921
0.00877774
0.00874748
0.00874175
0.00870179
0.00871787
0.00869519
0.00870617
0.00867512
0.00865103
0.00856465
0.00860256
0.00854781
0.00852269
0.00849651
0.00846953
0.00847294
0.0084453
0.00838841
0.00839516
0.00834339
0.00829743
0.00835245
0.00828764
0.0083173
0.00831514
0.00828328
0.00834507
0.00831317
0.00835004
0.0082879
0.00828212
0.00828274
0.00834552
0.00831608
0.00834789
0.00831909
0.00832186
0.00832896
0.00831269
0.008333
0.00838827
0.00841447
0.00847279
0.00846922
0.00849637
0.00855338
0.00857852
0.00860382
0.00859615
0.00862048
0.00864291
0.00864427
0.00869828
0.00868452
0.00876313
0.00871016
0.00877806
0.00877837
0.00914465
0.0123698
0.00443497
0.00443956
0.0116761
0.00855512
0.00827842
0.00823432
0.00826429
0.00826443
0.00826221
0.00826097
0.00829143
0.00828934
0.00825645
0.00825598
0.00822315
0.00828411
0.00822047
0.00821941
0.00824981
0.0082171
0.00824674
0.00824694
0.00824489
0.00821364
0.00821371
0.00827573
0.00824562
0.00827608
0.0082762
0.00824562
0.00824561
0.00824437
0.00821404
0.00824565
0.0082457
0.00821376
0.00824443
0.00824428
0.00827599
0.00821344
0.0082134
0.00821354
0.00827618
0.00827682
0.00821525
0.0082783
0.00824783
0.00824989
0.00824988
0.00822038
0.00822168
0.00828531
0.00822429
0.00825617
0.00825862
0.00829104
0.00829271
0.00826219
0.00829512
0.00826505
0.00826621
0.00831007
0.00858692
0.0116432
0.00443973
0.00453086
0.0111897
0.00849607
0.0082193
0.00821152
0.00827381
0.00821113
0.00821091
0.00821105
0.00827372
0.00824197
0.00827367
0.00824181
0.00821144
0.00827364
0.00824348
0.0082738
0.00821159
0.00824242
0.00824375
0.00821197
0.00821221
0.00821268
0.00827465
0.00821304
0.00827516
0.0082439
0.00827552
0.00824403
0.00821341
0.00821342
0.00827553
0.00821356
0.00824546
0.0082454
0.00827574
0.00824528
0.00824362
0.00821315
0.00827505
0.00827516
0.00824334
0.00824302
0.00824393
0.00824364
0.00821166
0.00821163
0.00821132
0.00824185
0.00824321
0.00824186
0.00827361
0.00827358
0.0082736
0.00821109
0.00827348
0.00821108
0.00824181
0.00821106
0.00824224
0.00828208
0.00849614
0.0112219
0.00453088
0.00445016
0.0115134
0.00857994
0.00822074
0.00827327
0.00827341
0.00824269
0.00824146
0.00821083
0.00827315
0.00821082
0.00824168
0.00824321
0.00827355
0.00821148
0.00824212
0.00824254
0.00821203
0.00824417
0.00824419
0.00824342
0.00827543
0.00827541
0.00821356
0.00824418
0.00821388
0.00821403
0.00821433
0.00824605
0.00824513
0.00821449
0.0082146
0.00821422
0.00824609
0.00824621
0.00824499
0.0082765
0.00821403
0.00827573
0.0082455
0.00827573
0.00824501
0.00824376
0.00824455
0.00821257
0.00821218
0.00827413
0.00824264
0.00824357
0.00827364
0.00821125
0.00824179
0.00821094
0.00827319
0.00824167
0.00824266
0.00827308
0.00824264
0.0082413
0.00824124
0.00825135
0.00851915
0.0115193
0.00445538
0.00433237
0.0119826
0.0086153
0.00828861
0.00824168
0.00824149
0.00821101
0.0082735
0.00824177
0.00821101
0.00821112
0.00821139
0.00824203
0.00824357
0.00824249
0.00821236
0.00827464
0.00824335
0.00827485
0.00821286
0.0082438
0.00827611
0.00827638
0.00827659
0.00827646
0.00827708
0.0082768
0.00827686
0.00824676
0.00827762
0.00827755
0.00824684
0.00821533
0.00821546
0.00824544
0.00824711
0.00827708
0.00824536
0.00821432
0.00824609
0.0082762
0.00824551
0.00827572
0.00827558
0.00827508
0.00824438
0.00824432
0.00827432
0.00827429
0.00824378
0.00824208
0.00827396
0.00824214
0.00821106
0.00827339
0.00821111
0.00821069
0.00821077
0.00821055
0.00821061
0.00822601
0.00867548
0.0119794
0.00433757
0.00432384
0.0120928
0.00864233
0.00829034
0.00824152
0.00824262
0.00824171
0.00824301
0.00827364
0.00824335
0.00827401
0.00827364
0.00821168
0.00824393
0.00827442
0.00827448
0.00824351
0.00824464
0.00824354
0.00821323
0.00821386
0.00827637
0.00827692
0.00827672
0.00821491
0.00827728
0.00821551
0.00821546
0.00821578
0.00827809
0.00824701
0.00821637
0.00824678
0.00827833
0.00821588
0.00827776
0.00824758
0.00824729
0.00821495
0.00824665
0.00824638
0.00821443
0.00824423
0.00824397
0.00821307
0.00821288
0.00824334
0.00821243
0.00824418
0.00827414
0.00821184
0.00827377
0.00827369
0.00821128
0.00824309
0.00827336
0.00821102
0.00824155
0.00824261
0.00824272
0.00829005
0.00864232
0.0121578
0.00432853
0.00433492
0.0120659
0.0086668
0.00825854
0.00821088
0.00821066
0.00824299
0.00821119
0.0082422
0.00827385
0.00827375
0.00821167
0.00824251
0.00827414
0.00821217
0.00821281
0.00827519
0.00824387
0.00824538
0.00824582
0.00824599
0.00824538
0.00827718
0.0082455
0.00821542
0.00824628
0.00824823
0.00824688
0.00824711
0.00824899
0.00827922
0.00824896
0.00824931
0.00824738
0.00821676
0.00821666
0.00824844
0.00827876
0.00821588
0.00824654
0.00824625
0.00824683
0.00821492
0.00821423
0.00821348
0.00824423
0.0082752
0.0082437
0.00827486
0.00824419
0.00824243
0.00821192
0.00821138
0.00824182
0.00824327
0.00821119
0.00824307
0.00824302
0.00824163
0.00824144
0.00822747
0.00869745
0.0120654
0.00433482
0.00434601
0.0120569
0.00868248
0.00828933
0.00827349
0.00821078
0.00827359
0.00824307
0.00824336
0.00821131
0.00821158
0.00821176
0.0082118
0.00821205
0.00821238
0.00824332
0.00824371
0.0082441
0.00824494
0.00827671
0.00824555
0.00824554
0.00824615
0.00821639
0.00821615
0.00821715
0.00827974
0.00821793
0.00821847
0.00825007
0.00825013
0.0082504
0.0082802
0.00821849
0.00821866
0.00821772
0.00824994
0.00827984
0.008217
0.00827862
0.00827832
0.00827797
0.00827724
0.00824676
0.00821448
0.00827605
0.00821404
0.00824513
0.00824478
0.00824447
0.0082126
0.00827429
0.00821169
0.00821164
0.00827385
0.00821132
0.00827363
0.00827374
0.0082734
0.00821078
0.00822664
0.00868208
0.0120298
0.00434591
0.00435847
0.011937
0.00863429
0.0082882
0.0082735
0.00821102
0.00824203
0.00821167
0.00827366
0.00821167
0.00824259
0.00824379
0.00821245
0.0082123
0.00821263
0.00821331
0.00821341
0.00821437
0.00824627
0.00824538
0.00824633
0.00821661
0.00824873
0.00827945
0.00821792
0.00824916
0.00828069
0.00825122
0.00828203
0.00825182
0.00822025
0.00825069
0.00822019
0.00825048
0.00828176
0.0082199
0.00828113
0.00828071
0.00821891
0.00824955
0.00824939
0.00824866
0.00821678
0.00827768
0.0082455
0.00824565
0.00827642
0.00827579
0.0082439
0.00827546
0.00827517
0.00827452
0.00821233
0.0082438
0.00827381
0.00821159
0.00824223
0.00827384
0.00827339
0.00824187
0.00828796
0.00866372
0.0118997
0.00435328
0.00436825
0.0118344
0.00861431
0.00825657
0.0082421
0.00827356
0.00827406
0.00827364
0.00821183
0.0082425
0.00824404
0.00821249
0.00827497
0.00821286
0.00821376
0.00824546
0.00821439
0.00824657
0.00821518
0.00821599
0.0082785
0.00827979
0.00828054
0.0082811
0.00825047
0.00825046
0.00822047
0.00825138
0.00828354
0.0082537
0.00825302
0.00825277
0.00822233
0.00822297
0.0082221
0.00825285
0.00822101
0.00822101
0.00828218
0.00821936
0.00828111
0.0082497
0.00827951
0.00824696
0.008216
0.00827718
0.00824558
0.00821455
0.00821366
0.00827529
0.00827507
0.0082127
0.00827432
0.00827459
0.00821202
0.00824361
0.00827388
0.00827393
0.008243
0.00827326
0.00822468
0.00861405
0.0118347
0.00436805
0.00439003
0.0117697
0.00862649
0.00825566
0.0082737
0.00824332
0.00827378
0.00821163
0.00824384
0.00824277
0.00827459
0.00821281
0.0082752
0.00821387
0.00827591
0.0082463
0.00824596
0.00827796
0.00824651
0.00821686
0.00821846
0.00828112
0.00828164
0.00828259
0.00828366
0.00825248
0.00822252
0.00822347
0.00822447
0.00822484
0.0082572
0.0082264
0.00822565
0.00828697
0.00822537
0.00828642
0.00822356
0.00825507
0.00828418
0.00822201
0.00828242
0.00821994
0.00828073
0.00821796
0.00824745
0.00824829
0.00824757
0.00827713
0.00824479
0.0082141
0.00821302
0.00821263
0.00821283
0.00827472
0.008244
0.00827428
0.00824267
0.00827376
0.00824289
0.00821094
0.00825447
0.00856704
0.011743
0.00438479
0.00440362
0.0115882
0.00857081
0.00825318
0.00827398
0.00827379
0.00824353
0.00821216
0.00827445
0.00821236
0.00824337
0.00821336
0.0082444
0.00824559
0.00824655
0.0082458
0.00824702
0.00827863
0.00824761
0.00824945
0.0082811
0.00828255
0.00825336
0.00825489
0.00828632
0.00825502
0.00822585
0.0082269
0.00825933
0.00825978
0.00825936
0.00829092
0.00823011
0.00823005
0.00826077
0.00825882
0.00822745
0.00828768
0.00825701
0.00828528
0.00825379
0.00825314
0.00828221
0.00824988
0.00824922
0.0082794
0.00827886
0.008278
0.00821558
0.00827618
0.00821393
0.0082134
0.00827496
0.00827485
0.008243
0.00827473
0.00827404
0.00821154
0.00821127
0.00821117
0.00825315
0.00860274
0.0116243
0.00440838
0.00442926
0.0114451
0.00851495
0.0082213
0.00827378
0.00824226
0.00824274
0.00827453
0.00827467
0.00824335
0.0082753
0.00827607
0.00827573
0.00821482
0.00827705
0.00824799
0.00827854
0.00824935
0.0082187
0.0082813
0.00825313
0.00828387
0.00825543
0.00828714
0.00828901
0.00822915
0.00826043
0.00823232
0.00829517
0.00826504
0.00823459
0.00823522
0.00826649
0.00829714
0.00829669
0.00826478
0.00826225
0.00823081
0.00825898
0.00822669
0.00828679
0.00825502
0.00825386
0.00825122
0.00828135
0.00825046
0.00824852
0.00824758
0.00827803
0.00824697
0.00824472
0.00824571
0.00821369
0.00821272
0.00821241
0.00827467
0.00821195
0.00821189
0.0082736
0.00827352
0.00822146
0.00851566
0.0114397
0.00442407
0.00444744
0.0112967
0.00852059
0.00825104
0.00824201
0.00824342
0.00824277
0.00824401
0.00821277
0.00821263
0.00821395
0.00827611
0.00821488
0.0082457
0.0082481
0.00827902
0.00824978
0.0082501
0.0082199
0.00825372
0.00828514
0.00822457
0.008226
0.00822858
0.00826209
0.00829565
0.00826596
0.00830013
0.00830177
0.00830323
0.00824224
0.00824347
0.00824352
0.00827331
0.00830367
0.00827218
0.00826945
0.00829773
0.00826488
0.00823087
0.00822868
0.0082882
0.00822554
0.00822344
0.00822181
0.00825188
0.00828101
0.00827977
0.0082475
0.00824747
0.0082155
0.00827642
0.0082758
0.00821341
0.00821293
0.00827493
0.00821257
0.00827431
0.00821181
0.00821153
0.00828258
0.00849103
0.011325
0.00444728
0.00447711
0.0111321
0.0084635
0.00828123
0.0082115
0.00821175
0.00824276
0.0082126
0.00827494
0.00821354
0.00827613
0.00827717
0.00827719
0.0082468
0.00827862
0.00828008
0.00825031
0.00822036
0.0082218
0.0082855
0.00828802
0.00825753
0.00823011
0.00823305
0.00826797
0.00830138
0.00824303
0.00827719
0.00824943
0.00828392
0.00825371
0.0083177
0.00831779
0.00831606
0.00828466
0.00831144
0.00824656
0.0082737
0.00823944
0.00823637
0.00823296
0.00823046
0.00829019
0.00828782
0.00828542
0.00825347
0.00828214
0.00824967
0.00824791
0.00824839
0.00827779
0.00824551
0.00821416
0.00824388
0.00824524
0.00827499
0.00827479
0.00827456
0.00827437
0.00827407
0.00825015
0.0085266
0.0111656
0.004477
0.00449976
0.0110666
0.00850057
0.00821822
0.00824346
0.00824293
0.00824443
0.00821269
0.00824504
0.00824413
0.0082463
0.0082771
0.00824749
0.00824687
0.00821821
0.00828062
0.0082211
0.00828368
0.00822359
0.00822655
0.00829085
0.00823174
0.00823578
0.00823997
0.00830568
0.00824874
0.00825432
0.00832173
0.00826399
0.00826795
0.00827088
0.0083351
0.00833528
0.0082716
0.0083312
0.00826435
0.00829146
0.00831593
0.00824891
0.0082441
0.0082396
0.008266
0.00829445
0.00825934
0.00822634
0.00822351
0.00825212
0.00825108
0.00821868
0.00824949
0.00827815
0.00821608
0.00821468
0.00821424
0.00827582
0.00821364
0.00824464
0.00821251
0.00827448
0.00827433
0.00828069
0.00847193
0.0110372
0.0044997
0.00452895
0.0108147
0.0084111
0.00827922
0.00821205
0.00827487
0.008275
0.00821295
0.00821324
0.00821425
0.00824551
0.00824585
0.00821668
0.00824904
0.00825033
0.00825106
0.00828385
0.00825401
0.00822665
0.00825971
0.00829478
0.00823752
0.00830356
0.00827834
0.00828427
0.008262
0.00830077
0.00834082
0.00831819
0.00832481
0.00829782
0.00833061
0.00836261
0.00836078
0.00835612
0.00831745
0.00834105
0.00826988
0.00826202
0.00828638
0.00827807
0.00827293
0.00829962
0.00823344
0.00826018
0.00822681
0.00825406
0.00828398
0.00825132
0.00828073
0.00821799
0.00827783
0.00824643
0.00824648
0.00827604
0.00827568
0.00827535
0.00821292
0.00827436
0.00827444
0.00827936
0.00847448
0.0108495
0.00453338
0.00456563
0.0106845
0.00841522
0.00824785
0.00824412
0.00827507
0.00824381
0.00824406
0.00821444
0.00827686
0.00827731
0.00824802
0.00824891
0.00825034
0.00824999
0.00825184
0.00825468
0.00825681
0.00826071
0.0082338
0.00829999
0.00827531
0.00825122
0.00832065
0.00826932
0.00831224
0.00829336
0.00837017
0.00835269
0.00833278
0.00840529
0.00837692
0.00837668
0.00834211
0.0083963
0.00838368
0.00837028
0.00829342
0.00834348
0.00830128
0.00825936
0.00828138
0.00830536
0.00826953
0.00829552
0.00829154
0.00825793
0.00828552
0.00828345
0.00825102
0.00828007
0.00821753
0.00827768
0.00824626
0.00821458
0.00821401
0.0082451
0.00824475
0.00821245
0.00827408
0.00821593
0.00838445
0.0106508
0.00455988
0.00459488
0.0104979
0.00835832
0.00821516
0.00827453
0.0082753
0.00824446
0.00827627
0.00827652
0.00824594
0.00824764
0.00824714
0.00824854
0.00828081
0.00822094
0.0082239
0.0082876
0.00826098
0.00826483
0.00826945
0.00830614
0.00831432
0.00832451
0.00827424
0.0082894
0.00830793
0.00832972
0.00841727
0.00844285
0.00841043
0.00844166
0.00848891
0.00848867
0.00850573
0.0084418
0.00841151
0.00841697
0.00832979
0.00837139
0.00835299
0.00827476
0.00832459
0.00825332
0.00830632
0.00826937
0.00826491
0.00822933
0.00825608
0.00825349
0.00828299
0.00821954
0.00824932
0.00821685
0.00827781
0.0082468
0.00827646
0.0082137
0.00824507
0.00821253
0.00821222
0.008215
0.00835861
0.0104354
0.00459002
0.00462751
0.0102343
0.00833392
0.00821442
0.00821269
0.00827543
0.00827578
0.00824503
0.0082469
0.00827774
0.00824826
0.00821706
0.00821832
0.00822051
0.00825377
0.00828734
0.00829082
0.00829415
0.00829925
0.00830518
0.00825293
0.00829565
0.00834017
0.00829632
0.00832043
0.00835109
0.00842005
0.00850247
0.00857884
0.00870881
0.00881416
0.00890611
0.00896789
0.00881441
0.00864492
0.00851442
0.00850243
0.00842123
0.0084143
0.00838365
0.00832894
0.0083404
0.00832539
0.00831487
0.0083058
0.00829922
0.00826379
0.00825957
0.00825664
0.008254
0.00825058
0.00824932
0.00821751
0.00827809
0.00824751
0.00827675
0.00821404
0.00827558
0.00821322
0.0082747
0.00824506
0.00839651
0.0102659
0.00463203
0.00466506
0.0101024
0.00831334
0.00824582
0.00827471
0.00824509
0.00821401
0.0082769
0.00827745
0.00827855
0.00827862
0.00821793
0.0082199
0.00825284
0.00828603
0.00828903
0.0082925
0.00823627
0.00827403
0.00828257
0.00829413
0.00834047
0.00836176
0.00839074
0.0084299
0.00848256
0.00849892
0.00865299
0.0090248
0.00974252
0.0108507
0.0116176
0.0116432
0.0108091
0.00973994
0.00898922
0.00871729
0.00853095
0.00845112
0.00836602
0.00839067
0.00836149
0.00827844
0.00829288
0.00825063
0.00824166
0.00826711
0.0082313
0.00825841
0.00822434
0.00822135
0.00825139
0.00827988
0.00821714
0.00827757
0.00824589
0.00821425
0.00824555
0.00827552
0.00827502
0.00821407
0.00834516
0.0101026
0.00466473
0.00469874
0.00987609
0.00832884
0.00821362
0.00821301
0.0082755
0.00821455
0.00827665
0.00821613
0.00827833
0.00821789
0.00825083
0.00828305
0.00828455
0.00825737
0.00822905
0.00826413
0.00827174
0.00831015
0.0083214
0.00830654
0.00832868
0.0083908
0.00843526
0.00849997
0.00854368
0.00881303
0.00948855
0.0121659
0.0208743
0.0344954
0.0423573
0.0430756
0.0342252
0.0210114
0.0120736
0.0094191
0.00881183
0.00854351
0.00849985
0.00843528
0.00835985
0.00835932
0.00830682
0.00825925
0.00824841
0.00827023
0.00829545
0.00825972
0.00828766
0.0082537
0.00825127
0.00824945
0.00821749
0.00821602
0.00824721
0.00824536
0.00821401
0.00827576
0.00827507
0.00827591
0.00835952
0.00990641
0.00470328
0.00471216
0.00986262
0.00835273
0.0082454
0.0082448
0.00824573
0.00827666
0.00824705
0.00827818
0.0082789
0.00825022
0.00828201
0.00828309
0.00822473
0.00828847
0.00823141
0.00826761
0.00830605
0.00825465
0.0083002
0.0083209
0.00831998
0.00839773
0.0085007
0.00859118
0.00887956
0.00983893
0.0176121
0.05315
0.108599
0.157063
0.18474
0.184566
0.15683
0.107432
0.0524423
0.0176162
0.00981815
0.00884509
0.00859178
0.00846821
0.00836611
0.0083202
0.00835295
0.00830153
0.00831696
0.00830642
0.00826821
0.00823139
0.00828896
0.00825511
0.00825331
0.00825139
0.00827982
0.00821706
0.00824637
0.00827695
0.0082146
0.00827579
0.00821302
0.00821355
0.00832213
0.00980262
0.00471191
0.0047161
0.00982691
0.00834991
0.00821353
0.00824513
0.00827629
0.00827694
0.00824722
0.00824815
0.00824935
0.00828071
0.00825047
0.00822274
0.00825653
0.00822934
0.00826479
0.00824084
0.00831168
0.00829335
0.00834381
0.00837174
0.00835124
0.00848308
0.00857625
0.00887736
0.00994325
0.0237871
0.0921496
0.212774
0.308404
0.357052
0.376094
0.376474
0.357644
0.308511
0.212039
0.0919966
0.0233656
0.00995999
0.00887657
0.00857664
0.00841902
0.00835126
0.00833937
0.00834345
0.00832491
0.00831171
0.00830229
0.00826493
0.00829096
0.00828754
0.00828456
0.00825114
0.00824912
0.00824891
0.00827827
0.00821567
0.00827654
0.00827616
0.00824497
0.00824556
0.00831882
0.00979653
0.00471586
0.0047188
0.00974212
0.00828577
0.00821355
0.0082451
0.00824604
0.00824571
0.00824766
0.00827882
0.0082481
0.00821936
0.00825252
0.00825383
0.0082582
0.00829247
0.00826714
0.00830582
0.00831698
0.00833271
0.00835638
0.00839303
0.00845225
0.00849805
0.00884194
0.00979244
0.0238488
0.111044
0.272298
0.357508
0.413151
0.446973
0.463271
0.465006
0.447724
0.414427
0.357903
0.271856
0.110398
0.0228151
0.00981883
0.00880804
0.00849827
0.00842113
0.00832962
0.00832536
0.00830075
0.00828434
0.00827407
0.00829812
0.00826222
0.00825693
0.00825399
0.00825254
0.00821906
0.00821771
0.00827844
0.00827774
0.00821489
0.00824587
0.00824505
0.00827599
0.0083481
0.00977115
0.0047233
0.00472031
0.00972504
0.00831594
0.00821363
0.00821364
0.00827662
0.00827748
0.00827805
0.008249
0.00828017
0.00824968
0.00822186
0.00825542
0.00822762
0.00826373
0.00830063
0.00830952
0.00832235
0.00834126
0.00833873
0.00841786
0.00850285
0.00865247
0.00945204
0.0177994
0.0923694
0.272472
0.374061
0.436101
0.471614
0.500655
0.525483
0.53309
0.473612
0.472771
0.438077
0.374486
0.271776
0.0907041
0.0175785
0.00945059
0.00868476
0.00847046
0.00835417
0.00830742
0.00830922
0.00825982
0.0083089
0.00830028
0.00826386
0.00825824
0.00828587
0.00825239
0.00821967
0.00827967
0.00821721
0.00824629
0.00821504
0.00827628
0.00821355
0.00821378
0.00828449
0.00975527
0.00472479
0.00472642
0.00976937
0.00828328
0.00821383
0.00824531
0.00821414
0.0082152
0.00824664
0.00824735
0.00821803
0.00821997
0.00825219
0.00822478
0.00825815
0.00823287
0.00824024
0.00828031
0.00829539
0.00831834
0.00835186
0.00844321
0.00857993
0.00905923
0.0121836
0.0528645
0.212777
0.357276
0.435983
0.478984
0.517681
0.57861
0.385611
0.190256
0.215756
0.496468
0.481367
0.438039
0.357578
0.210848
0.0521401
0.0120535
0.0090242
0.00851544
0.00837954
0.00832065
0.0082861
0.00832681
0.00831195
0.00824084
0.00829483
0.00829059
0.00822495
0.00822201
0.00828158
0.0082187
0.00827892
0.00827843
0.00827744
0.00824517
0.00827582
0.00827623
0.00828353
0.00971008
0.0047214
0.0047226
0.00970341
0.00828285
0.00824589
0.00824427
0.00821457
0.00824724
0.00824687
0.00824774
0.0082187
0.00825226
0.00828482
0.0082554
0.00822904
0.00823483
0.00830337
0.0082529
0.00833114
0.00829282
0.00833314
0.00841066
0.00867832
0.00975281
0.0209862
0.108276
0.307955
0.412774
0.470943
0.517134
0.493898
0.406503
0.199082
0.096555
0.119484
0.395731
0.493271
0.472
0.414197
0.30778
0.106849
0.0209625
0.00973914
0.00867751
0.00841085
0.00833322
0.00832527
0.00830073
0.00825234
0.00827311
0.00823482
0.00829087
0.00822574
0.00828415
0.0082207
0.0082501
0.00821761
0.00827812
0.0082155
0.0082142
0.00821357
0.00824474
0.00834533
0.00973355
0.00472235
0.00472764
0.00969507
0.00828232
0.00827649
0.00827614
0.00824665
0.00827801
0.00827895
0.00827947
0.00821905
0.00825238
0.0082854
0.00828788
0.00825979
0.00823576
0.00830537
0.00831649
0.00830357
0.00829813
0.00840573
0.00844249
0.00888124
0.010852
0.0341348
0.15744
0.356367
0.446026
0.498439
0.585501
0.137958
0.0819016
0.0298908
0.0179238
0.0891229
0.121972
0.2149
0.465699
0.446838
0.357526
0.155565
0.0341486
0.0107939
0.00884484
0.00847413
0.00837483
0.00829815
0.00830364
0.00828453
0.00824323
0.00826514
0.00829158
0.00825663
0.00828506
0.0082829
0.00828103
0.00827962
0.00824717
0.00824708
0.00821463
0.00827591
0.00827642
0.0082825
0.00972526
0.00472738
0.00469184
0.009841
0.00828799
0.00821429
0.00824472
0.00827686
0.00824658
0.00827877
0.00827994
0.00828061
0.00822053
0.00822264
0.00822622
0.00826048
0.00826751
0.00830628
0.00831781
0.00833562
0.00836306
0.00840901
0.00845768
0.00897301
0.0117204
0.0430434
0.185148
0.375156
0.461404
0.519442
0.44723
0.186936
0.0184286
0.00977376
0.00958231
0.0167003
0.133935
0.41565
0.488797
0.460762
0.376326
0.183616
0.042725
0.0115623
0.00896613
0.00848906
0.00837712
0.00836313
0.00827305
0.00825506
0.00830531
0.0082976
0.00829223
0.00822645
0.00828447
0.00825158
0.0082189
0.00821727
0.00821612
0.00821535
0.00824632
0.00824564
0.00824464
0.00828831
0.00987185
0.00469154
0.00469183
0.00984216
0.00835019
0.00827647
0.00824422
0.00821465
0.00821574
0.00824786
0.00821808
0.0082807
0.00825291
0.00828442
0.00822567
0.00822992
0.00823641
0.00830495
0.00825566
0.0083357
0.00836301
0.00840934
0.00852084
0.00891028
0.0116811
0.0429671
0.184994
0.375129
0.462649
0.532396
0.514974
0.268141
0.040301
0.0104045
0.00992746
0.025184
0.203169
0.173108
0.454382
0.459708
0.376592
0.18365
0.0419369
0.0115566
0.00890391
0.00852064
0.00837823
0.00836293
0.00830485
0.00825533
0.00830532
0.00829763
0.00829223
0.00822644
0.0082845
0.00828259
0.00824971
0.00821756
0.00821626
0.00824581
0.00824523
0.00827599
0.00824475
0.00835035
0.00984141
0.00469154
0.0047229
0.00972396
0.00828248
0.00827627
0.00821398
0.00827709
0.00827749
0.00821618
0.00821767
0.00828121
0.00828236
0.00822262
0.00822619
0.00829217
0.00829773
0.0083054
0.00831613
0.00827124
0.0082982
0.00840596
0.00847419
0.00884821
0.0108541
0.0348118
0.156859
0.356394
0.449747
0.530784
0.303116
0.1303
0.116295
0.0246551
0.0225774
0.0834781
0.114424
0.212196
0.46065
0.447197
0.35778
0.156135
0.0341691
0.0108372
0.00881415
0.00847484
0.00837473
0.00832937
0.00827154
0.00831626
0.00827516
0.00829718
0.00829189
0.00822595
0.00822266
0.00822026
0.00821851
0.00827936
0.00827867
0.00827785
0.00827693
0.00821387
0.00824575
0.00828257
0.00969493
0.00472736
0.00472736
0.0097625
0.00831377
0.00824483
0.0082762
0.00827676
0.00821546
0.00824642
0.00821729
0.00824885
0.00822046
0.00825359
0.00828746
0.00825939
0.00823492
0.0082731
0.00825201
0.00826847
0.00832542
0.00839685
0.00847454
0.00864584
0.00970662
0.0213861
0.108177
0.307541
0.413597
0.478321
0.548382
0.402079
0.382757
0.167209
0.154253
0.111884
0.39522
0.490534
0.471626
0.414521
0.307828
0.107005
0.0209383
0.00971142
0.00867752
0.00847455
0.00836458
0.00835619
0.00833113
0.00831505
0.00830414
0.00829684
0.00829168
0.00825717
0.00828424
0.00825212
0.00825019
0.00821762
0.00827817
0.0082156
0.00824627
0.00827588
0.00827649
0.00834543
0.00973377
0.00472708
0.00472169
0.00973921
0.00828337
0.0082446
0.00827613
0.00827704
0.00827769
0.00827859
0.00827965
0.00828073
0.0082506
0.0082531
0.00828644
0.00822888
0.00826452
0.00823966
0.00824974
0.00829484
0.00828653
0.00838406
0.00841105
0.0085795
0.00905958
0.0121842
0.0522758
0.212094
0.356828
0.437225
0.480703
0.46765
0.216178
0.482972
0.193106
0.661264
0.534717
0.484334
0.43838
0.357522
0.210779
0.0522762
0.0120319
0.00905415
0.0085474
0.00837955
0.00835187
0.00828629
0.00826429
0.0083116
0.00827116
0.0082648
0.00825896
0.00822487
0.00822186
0.00825007
0.00828054
0.0082795
0.0082785
0.00827761
0.00824612
0.00821362
0.0082763
0.00834586
0.00976934
0.00472615
0.00472034
0.00972481
0.0083152
0.00821382
0.00824545
0.00827641
0.00821532
0.00824765
0.00824873
0.00824956
0.00822011
0.00828325
0.0082249
0.00828894
0.00823266
0.00829936
0.00824695
0.00832228
0.00834102
0.00837065
0.00841754
0.00850275
0.00868647
0.0094624
0.0178777
0.0919463
0.270888
0.373469
0.437118
0.469297
0.471641
0.506576
0.533912
0.508852
0.476713
0.438267
0.37409
0.270691
0.0905652
0.0173037
0.00944829
0.00868539
0.00843845
0.00838613
0.0083396
0.00827837
0.00825912
0.00827849
0.00826867
0.00823216
0.00822704
0.00822375
0.00822127
0.00821936
0.00828007
0.00827928
0.00827832
0.00827744
0.00821428
0.00821337
0.00827605
0.00828479
0.00978408
0.0047201
0.00471884
0.0097722
0.00834812
0.00827592
0.00821343
0.00824586
0.00824563
0.0082775
0.00821653
0.00821806
0.00828089
0.00825305
0.00828555
0.00828841
0.00826189
0.00823623
0.00827485
0.00825396
0.00827052
0.00835667
0.00836229
0.00842043
0.00856377
0.00881365
0.00981343
0.0233145
0.110867
0.270835
0.356702
0.413526
0.446976
0.461985
0.465123
0.448855
0.413889
0.357076
0.270766
0.10899
0.0233188
0.00983443
0.00881228
0.00853098
0.00845264
0.0083624
0.00832551
0.00833271
0.0083165
0.00830561
0.00823627
0.00829176
0.00822661
0.00822308
0.0082825
0.00821943
0.00827964
0.00827895
0.008278
0.00824586
0.00821402
0.00827543
0.00821379
0.00831761
0.00980111
0.0047186
0.00472094
0.00979648
0.00835002
0.00821367
0.00824481
0.00821372
0.0082145
0.0082463
0.00827802
0.0082171
0.00821888
0.00825202
0.00825321
0.00825585
0.00825909
0.00823411
0.00830158
0.00824951
0.00832481
0.00834375
0.00837162
0.00841462
0.00845135
0.0085438
0.00888063
0.00999279
0.0232263
0.0914971
0.211068
0.306983
0.356563
0.375414
0.375801
0.356728
0.307097
0.210493
0.0905654
0.0227858
0.00996746
0.00884521
0.0085765
0.0084514
0.00835126
0.00833937
0.00828099
0.0083243
0.0083115
0.00824078
0.00829489
0.00825977
0.00828716
0.00822259
0.00822047
0.00824873
0.00824785
0.00824698
0.00827769
0.00827714
0.00824576
0.0082755
0.00824554
0.00828793
0.00976741
0.00471592
0.00471703
0.00983134
0.00832134
0.00824408
0.00821297
0.00824391
0.00821437
0.00824659
0.00821578
0.00821677
0.0082497
0.00825071
0.00828394
0.00828645
0.00828881
0.00823167
0.00829868
0.00827402
0.00825498
0.0083006
0.00835298
0.00838392
0.00842949
0.0084354
0.00855873
0.00884516
0.00981444
0.0178145
0.0519728
0.107719
0.156298
0.183862
0.183758
0.156325
0.1071
0.0522794
0.0174828
0.0097943
0.00884304
0.0086236
0.00846732
0.0084298
0.00832058
0.00832219
0.00826942
0.00828515
0.00827596
0.00823691
0.00823141
0.00822686
0.00822385
0.00822126
0.0082814
0.00828032
0.00821713
0.00824623
0.00821505
0.00827652
0.00824457
0.00827547
0.00824426
0.00832227
0.00980198
0.00471676
0.00469809
0.00993994
0.00835983
0.00824424
0.00824452
0.00821324
0.00821382
0.00821448
0.0082151
0.00821619
0.00824821
0.00824988
0.00828287
0.00828478
0.00825746
0.00826057
0.00823365
0.00826969
0.00824795
0.00825946
0.0083376
0.00835952
0.00835943
0.00837113
0.00846881
0.00854349
0.00877629
0.00943343
0.0121468
0.0209937
0.0339933
0.0431795
0.0423954
0.0338547
0.0211188
0.0120828
0.00942138
0.00877518
0.00857628
0.0084362
0.00843493
0.00839052
0.00835931
0.00830704
0.00825892
0.00827951
0.00827041
0.00829537
0.00822922
0.00822523
0.00822254
0.00825048
0.00828108
0.00828008
0.00827847
0.00821569
0.00821457
0.00821423
0.00827565
0.0082752
0.00821369
0.00835999
0.00994014
0.00470261
0.00467418
0.0101012
0.00834383
0.0082139
0.00824439
0.00824501
0.00824407
0.00821419
0.00821508
0.00824769
0.00824707
0.00821793
0.00821946
0.00822153
0.00822445
0.0082883
0.00823058
0.00826605
0.00827185
0.00825033
0.00826225
0.00827787
0.00836081
0.00832689
0.00836571
0.00845034
0.00856251
0.00871782
0.00906198
0.00976686
0.0108956
0.0116587
0.0116163
0.0108787
0.00975622
0.00905807
0.00871706
0.00849777
0.0084185
0.00842946
0.00839063
0.00833106
0.00834014
0.00829265
0.00828239
0.00824254
0.00826733
0.0082926
0.00825845
0.00822402
0.00825301
0.00821993
0.00824871
0.0082792
0.00821635
0.00827708
0.00827672
0.00827616
0.00821342
0.00821256
0.00824454
0.00837532
0.0100718
0.00466919
0.0046399
0.0102898
0.00839525
0.00824502
0.00821239
0.00824362
0.00824549
0.0082459
0.00824552
0.00827765
0.00824732
0.00827908
0.00821926
0.00828213
0.00825404
0.00825627
0.00829021
0.00829457
0.0082989
0.00824368
0.00828317
0.00832517
0.00834013
0.00829623
0.00835113
0.00838227
0.00845219
0.00850256
0.00851533
0.00864648
0.00888196
0.00893781
0.00893907
0.00888062
0.00871009
0.00854734
0.00847018
0.00845201
0.00841455
0.00835163
0.00832878
0.00833998
0.00832608
0.00828435
0.00830536
0.00826776
0.00826291
0.00825902
0.00822492
0.00828408
0.00825241
0.00828065
0.00827978
0.00827871