/*--------------------------------*- C++ -*----------------------------------*\
  =========                 |
  \\      /  F ield         | OpenFOAM: The Open Source CFD Toolbox
   \\    /   O peration     | Website:  https://openfoam.org
    \\  /    A nd           | Version:  11
     \\/     M anipulation  |
\*---------------------------------------------------------------------------*/
FoamFile
{
    format      ascii;
    class       volScalarField;
    location    "189";
    object      omega;
}
// * * * * * * * * * * * * * * * * * * * * * * * * * * * * * * * * * * * * * //

dimensions      [0 0 -1 0 0 0 0];

internalField   nonuniform List<scalar> 
272944
(
0.178492
0.193975
0.189384
0.188693
0.188941
0.189122
0.189489
0.189765
0.190061
0.1903
0.190669
0.191079
0.191527
0.19213
0.192566
0.193247
0.193778
0.194568
0.195284
0.195916
0.196868
0.197705
0.198408
0.199075
0.199518
0.19963
0.199712
0.199664
0.19971
0.199742
0.199862
0.199289
0.199289
0.199761
0.199842
0.19981
0.199764
0.199612
0.199529
0.199517
0.199176
0.198408
0.197605
0.196771
0.195958
0.195187
0.194456
0.193786
0.193148
0.192673
0.192145
0.191638
0.191193
0.190672
0.190294
0.189963
0.18964
0.18938
0.189234
0.189057
0.188696
0.189389
0.193975
0.17849
0.199508
0.132767
0.124269
0.122758
0.122157
0.121964
0.121677
0.121771
0.121133
0.121175
0.120507
0.120497
0.119784
0.119736
0.119324
0.118545
0.118089
0.117625
0.11715
0.116663
0.11619
0.116068
0.115634
0.114937
0.114752
0.114687
0.114641
0.114613
0.114941
0.114934
0.114575
0.115402
0.115402
0.114927
0.114935
0.114941
0.114966
0.114641
0.115038
0.115105
0.11494
0.115636
0.116069
0.11619
0.11667
0.1175
0.117625
0.118438
0.118546
0.119325
0.11974
0.120125
0.120164
0.120843
0.120842
0.121136
0.121769
0.12201
0.122294
0.122485
0.122433
0.124589
0.133039
0.199594
0.193526
0.122575
0.112526
0.111085
0.111365
0.111305
0.111222
0.110762
0.111069
0.110598
0.110508
0.110421
0.110719
0.11023
0.110522
0.110417
0.109915
0.109805
0.109697
0.109593
0.10989
0.109405
0.109336
0.109686
0.109273
0.109673
0.109675
0.109282
0.109684
0.10929
0.10929
0.109322
0.109719
0.10969
0.109689
0.109286
0.10968
0.109278
0.109673
0.109671
0.109687
0.109732
0.109804
0.109892
0.10999
0.109699
0.109806
0.109914
0.110022
0.110127
0.110228
0.110327
0.110814
0.110904
0.110992
0.110679
0.111153
0.110831
0.111305
0.110975
0.111085
0.112526
0.122259
0.193651
0.19268
0.119428
0.110609
0.108932
0.109287
0.108878
0.109264
0.108862
0.108856
0.108857
0.108858
0.108865
0.10927
0.109279
0.108891
0.109301
0.109313
0.109329
0.109341
0.108961
0.109374
0.108993
0.109407
0.10942
0.109039
0.109448
0.109061
0.109072
0.109479
0.109486
0.109092
0.109489
0.109491
0.109491
0.109487
0.10908
0.109073
0.109061
0.10945
0.109436
0.109421
0.109007
0.10899
0.109374
0.108961
0.108944
0.109327
0.108916
0.1093
0.10929
0.108881
0.109269
0.108867
0.109258
0.10886
0.108856
0.108862
0.108864
0.109278
0.109287
0.108931
0.110216
0.119762
0.192684
0.194886
0.118421
0.109824
0.109254
0.109209
0.108802
0.109193
0.109194
0.109192
0.108798
0.108804
0.108813
0.108827
0.109236
0.108854
0.109266
0.108886
0.109301
0.108924
0.109339
0.109357
0.109375
0.109392
0.109014
0.109425
0.109044
0.109056
0.109068
0.109079
0.109483
0.109488
0.109096
0.109492
0.109489
0.109484
0.109077
0.109465
0.109058
0.10944
0.10903
0.109009
0.108994
0.108975
0.109358
0.10934
0.109321
0.109302
0.109283
0.108871
0.109251
0.10884
0.108824
0.108814
0.108804
0.109198
0.108794
0.109193
0.108794
0.109202
0.108809
0.108853
0.109824
0.118085
0.194889
0.192899
0.119596
0.110095
0.109253
0.108802
0.108791
0.109182
0.108785
0.109182
0.108793
0.109196
0.108811
0.109218
0.108838
0.109248
0.108869
0.108887
0.109305
0.109326
0.109347
0.108968
0.108988
0.10901
0.109426
0.109049
0.109463
0.109478
0.109491
0.109503
0.109111
0.109515
0.109517
0.109518
0.109518
0.10951
0.109106
0.109092
0.109477
0.109068
0.109447
0.10903
0.109409
0.10899
0.109367
0.109347
0.109327
0.10891
0.108887
0.109266
0.108854
0.109233
0.108821
0.109207
0.108799
0.108791
0.109184
0.108787
0.109182
0.108793
0.108802
0.108854
0.110488
0.119262
0.192782
0.190118
0.121257
0.110971
0.108854
0.10879
0.108783
0.109172
0.108776
0.108777
0.109186
0.109193
0.109204
0.108823
0.109235
0.108856
0.109271
0.108894
0.108919
0.108942
0.109363
0.10899
0.109009
0.109033
0.109056
0.10908
0.109096
0.109118
0.109135
0.109544
0.109152
0.109159
0.109563
0.109561
0.109559
0.109157
0.109541
0.109134
0.109119
0.109498
0.109479
0.109062
0.109435
0.109013
0.108988
0.108967
0.109341
0.109316
0.108898
0.108877
0.109252
0.10884
0.108819
0.108806
0.109193
0.108788
0.109176
0.109177
0.109173
0.109184
0.109193
0.109254
0.11058
0.121256
0.190012
0.189902
0.121497
0.111056
0.108857
0.108793
0.109183
0.108778
0.109178
0.108781
0.109189
0.1088
0.108818
0.10923
0.109248
0.108871
0.108894
0.108917
0.109339
0.108973
0.109397
0.109422
0.109048
0.109075
0.109104
0.109525
0.109151
0.109571
0.109586
0.1096
0.109217
0.10922
0.109625
0.10923
0.10922
0.109613
0.109207
0.109588
0.109569
0.109551
0.109526
0.109502
0.109478
0.109054
0.109026
0.109395
0.109367
0.108944
0.109315
0.109291
0.108874
0.109248
0.108834
0.108817
0.1092
0.109191
0.108784
0.109179
0.108778
0.109183
0.109192
0.10886
0.111056
0.121165
0.189782
0.189955
0.121344
0.111019
0.108853
0.109191
0.109184
0.109175
0.10918
0.108785
0.108797
0.10881
0.109223
0.108845
0.108869
0.109289
0.109312
0.108941
0.108973
0.1094
0.109433
0.109463
0.109095
0.109127
0.109163
0.109586
0.109218
0.109635
0.109262
0.10928
0.109688
0.109301
0.109704
0.109699
0.109301
0.109691
0.109676
0.10966
0.109237
0.109613
0.109187
0.109158
0.109526
0.109495
0.109466
0.109434
0.109003
0.108974
0.108944
0.108917
0.109288
0.108869
0.109241
0.109225
0.108811
0.109195
0.109184
0.10918
0.109175
0.108783
0.108793
0.109253
0.110628
0.121343
0.189955
0.190243
0.120772
0.110565
0.108854
0.108798
0.10919
0.108785
0.10919
0.109194
0.10921
0.109222
0.109244
0.109265
0.10929
0.109316
0.108949
0.108979
0.109013
0.109049
0.109082
0.109118
0.109159
0.109198
0.109626
0.109664
0.109691
0.109323
0.109747
0.109765
0.109785
0.109794
0.109797
0.109405
0.10979
0.109782
0.109769
0.109744
0.109323
0.109694
0.109267
0.109232
0.109197
0.10916
0.109519
0.109482
0.109048
0.10941
0.109377
0.109345
0.109316
0.109288
0.108867
0.109243
0.109223
0.108811
0.109195
0.108791
0.108784
0.10879
0.109198
0.109254
0.110565
0.120774
0.190245
0.190582
0.12047
0.110488
0.108857
0.108803
0.109195
0.108792
0.109197
0.10881
0.10922
0.108844
0.109263
0.109287
0.109317
0.109349
0.109383
0.10942
0.109459
0.109498
0.109144
0.109185
0.109625
0.109666
0.109312
0.109748
0.109385
0.109427
0.109848
0.109476
0.109897
0.109904
0.109515
0.109913
0.109512
0.1095
0.109874
0.109457
0.109426
0.109786
0.109751
0.10971
0.10967
0.109625
0.109185
0.109144
0.109098
0.109057
0.109021
0.108985
0.108947
0.108916
0.108889
0.109261
0.109239
0.108826
0.109206
0.108799
0.108791
0.108798
0.108803
0.108858
0.110488
0.120807
0.190692
0.191081
0.120144
0.110406
0.109263
0.108812
0.108808
0.108804
0.108818
0.109224
0.108844
0.109261
0.109288
0.108919
0.109351
0.109386
0.109428
0.109468
0.109513
0.10956
0.109609
0.109262
0.109307
0.109359
0.109408
0.109454
0.1095
0.10994
0.109581
0.109611
0.110031
0.109647
0.109658
0.110053
0.11004
0.110029
0.109604
0.109976
0.109941
0.109501
0.109858
0.10941
0.109761
0.109311
0.109264
0.109607
0.109166
0.109117
0.109466
0.109424
0.108991
0.108953
0.109316
0.108893
0.108862
0.109242
0.109224
0.108815
0.108805
0.109207
0.108816
0.109262
0.110408
0.120147
0.19108
0.191414
0.119796
0.110318
0.109268
0.108824
0.109217
0.108822
0.10923
0.109241
0.108866
0.108888
0.109316
0.108951
0.109387
0.109035
0.109472
0.109122
0.109175
0.109233
0.109687
0.109742
0.109403
0.109468
0.109526
0.109577
0.109632
0.110083
0.110123
0.110156
0.110186
0.110201
0.11021
0.110215
0.109809
0.110189
0.109759
0.110126
0.110078
0.109637
0.109977
0.109524
0.109866
0.109408
0.109743
0.109289
0.109628
0.109574
0.109125
0.109079
0.109427
0.109389
0.10935
0.109315
0.108889
0.109262
0.108844
0.108829
0.108821
0.10922
0.109224
0.10887
0.110713
0.120138
0.191519
0.192007
0.119747
0.110225
0.10888
0.108835
0.108835
0.109235
0.109247
0.108866
0.109286
0.108917
0.109347
0.10899
0.109432
0.109476
0.109134
0.109185
0.10925
0.109313
0.109376
0.10945
0.109518
0.109986
0.110051
0.109719
0.10979
0.110242
0.110297
0.109933
0.109967
0.109997
0.110012
0.110407
0.110391
0.110371
0.109944
0.110292
0.10985
0.11018
0.109729
0.109655
0.109984
0.109523
0.109446
0.109377
0.109315
0.109246
0.109186
0.109528
0.109085
0.109429
0.109388
0.108955
0.108917
0.108891
0.108863
0.108851
0.109236
0.109234
0.109236
0.108881
0.110226
0.119406
0.1919
0.192438
0.119336
0.110521
0.109287
0.10885
0.10885
0.108852
0.108871
0.108889
0.108917
0.108948
0.108985
0.109035
0.109475
0.109139
0.109589
0.109264
0.109727
0.109799
0.109485
0.109954
0.109647
0.110123
0.10981
0.109885
0.110358
0.110032
0.110493
0.110146
0.110189
0.110615
0.110632
0.110634
0.110211
0.110188
0.110548
0.110101
0.110428
0.109969
0.110285
0.109812
0.109723
0.110041
0.109565
0.109483
0.1098
0.109328
0.109256
0.109192
0.109531
0.109084
0.109428
0.109385
0.109348
0.109316
0.108889
0.10927
0.109253
0.108852
0.108853
0.109288
0.110521
0.119336
0.19254
0.193131
0.118904
0.110417
0.1089
0.108869
0.109266
0.108875
0.109292
0.109313
0.109347
0.109379
0.109028
0.109471
0.109134
0.109588
0.109263
0.109735
0.109819
0.109904
0.109987
0.109686
0.110178
0.110283
0.110377
0.11007
0.110163
0.110252
0.110322
0.110396
0.110449
0.11088
0.110893
0.110893
0.110477
0.110449
0.110791
0.110728
0.110247
0.110566
0.110477
0.110378
0.109887
0.110181
0.110084
0.109989
0.109902
0.109417
0.109335
0.10926
0.109593
0.109529
0.109078
0.109029
0.10938
0.109347
0.108916
0.10929
0.108875
0.109266
0.109266
0.108901
0.110417
0.118904
0.19313
0.193657
0.118449
0.110311
0.108916
0.109284
0.109284
0.108898
0.109315
0.108947
0.109375
0.10902
0.109065
0.109125
0.109185
0.109261
0.109337
0.109821
0.109913
0.110011
0.109718
0.109822
0.109947
0.110459
0.110576
0.110285
0.110408
0.110904
0.110599
0.111083
0.111149
0.111193
0.110808
0.110808
0.110793
0.111144
0.110688
0.111004
0.110506
0.110804
0.110693
0.110578
0.110454
0.10994
0.109825
0.109719
0.110011
0.109514
0.109419
0.109337
0.109658
0.10919
0.109126
0.109467
0.109024
0.109375
0.108946
0.108918
0.108896
0.108885
0.108883
0.108912
0.109916
0.11845
0.193658
0.194446
0.117642
0.109811
0.109327
0.109301
0.108907
0.109316
0.109343
0.10937
0.109017
0.109454
0.109116
0.109573
0.109254
0.109725
0.109419
0.109908
0.10962
0.110134
0.110249
0.109983
0.110516
0.110655
0.110794
0.110538
0.111075
0.111201
0.11092
0.11143
0.111515
0.11157
0.111194
0.111194
0.111564
0.111105
0.111425
0.111324
0.110807
0.111077
0.11094
0.110795
0.110254
0.110114
0.109984
0.110251
0.110135
0.10962
0.109511
0.109814
0.109726
0.109254
0.109573
0.109513
0.109457
0.109014
0.109369
0.109341
0.109317
0.108906
0.1089
0.108927
0.109808
0.117991
0.194448
0.195167
0.117518
0.110099
0.108945
0.109319
0.108925
0.108941
0.109367
0.109403
0.109444
0.109098
0.109166
0.109631
0.109713
0.109798
0.109498
0.109609
0.109734
0.110261
0.110007
0.110154
0.110712
0.110478
0.110644
0.110824
0.111392
0.11115
0.111304
0.111848
0.11196
0.11203
0.111655
0.111655
0.111622
0.111548
0.111436
0.111301
0.111556
0.111392
0.111223
0.110653
0.110475
0.110309
0.11055
0.110005
0.110258
0.109738
0.109611
0.109498
0.109398
0.109707
0.109236
0.109161
0.109496
0.109051
0.109004
0.10897
0.10934
0.108929
0.108919
0.108944
0.109702
0.117169
0.195062
0.19584
0.11669
0.109995
0.109359
0.109336
0.108945
0.108962
0.108997
0.10943
0.109082
0.109146
0.109607
0.109688
0.109775
0.10948
0.109592
0.109714
0.109861
0.110406
0.110562
0.110345
0.110929
0.111123
0.110939
0.111549
0.11177
0.111982
0.111774
0.112363
0.112513
0.1122
0.11225
0.112247
0.112612
0.112101
0.111955
0.111771
0.111981
0.11136
0.111549
0.111335
0.110727
0.110533
0.110338
0.110162
0.110005
0.110253
0.109719
0.109591
0.109476
0.109379
0.109687
0.109215
0.10914
0.109482
0.109432
0.109396
0.109365
0.109346
0.108941
0.109358
0.109995
0.117039
0.195932
0.196559
0.116203
0.109897
0.109374
0.108958
0.108966
0.108986
0.10902
0.109066
0.109121
0.109582
0.109261
0.109349
0.109453
0.109957
0.110081
0.109828
0.11038
0.110552
0.110336
0.110545
0.110771
0.111004
0.111663
0.111937
0.11222
0.112501
0.112362
0.11262
0.113296
0.113536
0.113641
0.113226
0.113119
0.112882
0.113034
0.112363
0.1125
0.111808
0.111526
0.111664
0.111006
0.111166
0.110546
0.11034
0.110552
0.110384
0.109832
0.109688
0.10956
0.109844
0.109746
0.109659
0.109186
0.109519
0.109067
0.109423
0.109387
0.109368
0.109356
0.109374
0.109895
0.116553
0.196661
0.197541
0.116089
0.109809
0.109391
0.109373
0.108989
0.109012
0.109051
0.109493
0.109159
0.109625
0.109711
0.109808
0.109913
0.109638
0.109779
0.109935
0.110117
0.110316
0.110536
0.111169
0.111427
0.111321
0.112042
0.112393
0.112767
0.112748
0.113183
0.11378
0.114696
0.116122
0.116572
0.116158
0.116121
0.115114
0.114199
0.113183
0.113161
0.112358
0.111982
0.11204
0.111322
0.111034
0.110764
0.110531
0.110313
0.110519
0.110342
0.110183
0.11004
0.109522
0.109409
0.109708
0.109232
0.109554
0.109099
0.109449
0.109016
0.109387
0.108976
0.108992
0.109411
0.115737
0.19744
0.198412
0.115314
0.109737
0.109406
0.108997
0.109408
0.109434
0.109075
0.109128
0.109191
0.109275
0.109762
0.109863
0.109583
0.109724
0.109882
0.110059
0.110656
0.110878
0.11113
0.11141
0.111318
0.111669
0.112072
0.11253
0.113056
0.114139
0.115295
0.11706
0.120141
0.123099
0.124923
0.124576
0.123471
0.12013
0.117478
0.114871
0.113717
0.11347
0.112945
0.112072
0.111675
0.111717
0.111012
0.111128
0.110881
0.110655
0.110456
0.11028
0.110123
0.109985
0.109863
0.109364
0.109668
0.109198
0.10913
0.109475
0.109435
0.10901
0.108993
0.109405
0.109735
0.115313
0.19841
0.199192
0.115276
0.109685
0.109422
0.109409
0.109033
0.109455
0.109108
0.109556
0.109233
0.109712
0.109807
0.109523
0.109662
0.110205
0.110377
0.110178
0.110794
0.110649
0.110935
0.111666
0.112043
0.11207
0.112591
0.113221
0.114512
0.116232
0.119519
0.127863
0.145502
0.16552
0.176772
0.176483
0.165335
0.145383
0.127514
0.119925
0.116226
0.114509
0.11322
0.112589
0.112482
0.111639
0.111664
0.11134
0.111048
0.110397
0.110173
0.109979
0.109803
0.109653
0.109525
0.10941
0.10971
0.10963
0.109557
0.109106
0.109457
0.10903
0.109011
0.109023
0.109287
0.114925
0.199091
0.199515
0.114755
0.109273
0.109437
0.109427
0.109445
0.109081
0.109525
0.109188
0.109267
0.109749
0.109457
0.109588
0.110121
0.109893
0.110474
0.110291
0.110539
0.111217
0.111144
0.111527
0.112395
0.112532
0.113218
0.114217
0.116265
0.121188
0.141975
0.196965
0.23813
0.248518
0.248966
0.248969
0.248487
0.238055
0.196532
0.141622
0.121134
0.11669
0.114635
0.113218
0.112947
0.112394
0.111527
0.111547
0.11082
0.110535
0.110284
0.110471
0.109889
0.109722
0.10998
0.109856
0.109356
0.10966
0.109189
0.109129
0.109476
0.109049
0.109425
0.109436
0.10967
0.115107
0.199515
0.199627
0.114687
0.109275
0.10945
0.109441
0.109065
0.1091
0.109551
0.109614
0.109691
0.109389
0.109505
0.11003
0.110186
0.110365
0.110571
0.110805
0.110671
0.110988
0.111363
0.111811
0.112771
0.113061
0.114094
0.11669
0.12214
0.157021
0.242399
0.261824
0.247156
0.23601
0.230374
0.230279
0.235809
0.246944
0.261914
0.242353
0.156461
0.121688
0.116246
0.114511
0.113476
0.112772
0.111813
0.111367
0.110989
0.110673
0.110401
0.110164
0.109964
0.109781
0.10963
0.1095
0.109387
0.109693
0.109217
0.109547
0.109102
0.109065
0.109441
0.109449
0.109274
0.115038
0.199627
0.199711
0.114994
0.109677
0.109462
0.109457
0.109477
0.109118
0.109568
0.109239
0.109326
0.109822
0.10994
0.109688
0.110242
0.110029
0.110244
0.110499
0.110795
0.111148
0.111568
0.112085
0.112743
0.114127
0.115777
0.121549
0.156582
0.255803
0.25995
0.24275
0.224061
0.209613
0.201823
0.20132
0.209666
0.223444
0.242229
0.259882
0.255874
0.156184
0.121086
0.116196
0.114123
0.113155
0.112497
0.111979
0.111148
0.110802
0.110499
0.110243
0.11043
0.109846
0.10968
0.109941
0.109824
0.109721
0.109242
0.10917
0.109515
0.109479
0.109455
0.109063
0.109278
0.114992
0.19961
0.199764
0.114966
0.109682
0.109473
0.109466
0.109093
0.109131
0.109191
0.109656
0.109348
0.109458
0.109977
0.110126
0.110298
0.110496
0.110327
0.110599
0.110921
0.111309
0.111777
0.112367
0.113188
0.115297
0.119927
0.141895
0.241934
0.259751
0.240155
0.216016
0.196372
0.179267
0.166985
0.164581
0.189697
0.196042
0.214841
0.239384
0.259713
0.241777
0.141383
0.119465
0.115288
0.113186
0.11278
0.112189
0.111309
0.111322
0.110605
0.11033
0.110494
0.109899
0.109726
0.109577
0.10985
0.109352
0.109656
0.109191
0.109529
0.109094
0.109466
0.109471
0.109681
0.114616
0.199663
0.19971
0.114591
0.109685
0.109481
0.109477
0.109504
0.109543
0.109202
0.10928
0.109768
0.109875
0.109611
0.110156
0.109945
0.11055
0.110792
0.110682
0.111024
0.111848
0.111954
0.112623
0.113783
0.117065
0.127902
0.196933
0.261516
0.242918
0.216196
0.191818
0.164649
0.127538
0.066156
0.0298398
0.273129
0.171992
0.190663
0.214751
0.242134
0.261844
0.195889
0.127429
0.117047
0.114197
0.113035
0.112365
0.111849
0.111025
0.110682
0.110791
0.110153
0.109937
0.11016
0.110006
0.109482
0.109766
0.10928
0.109202
0.109144
0.109103
0.109076
0.10908
0.109684
0.114941
0.19981
0.199841
0.114935
0.109689
0.109485
0.109086
0.109512
0.109552
0.109213
0.109293
0.109785
0.109895
0.109628
0.109792
0.110374
0.11059
0.11045
0.111145
0.11111
0.111963
0.112515
0.113299
0.1147
0.120173
0.145673
0.237886
0.247311
0.224509
0.196872
0.164976
0.0813553
0.100708
0.070209
0.424207
0.400652
0.0735787
0.172815
0.196033
0.223237
0.246903
0.237666
0.145263
0.120134
0.114695
0.113296
0.112514
0.11196
0.111514
0.11115
0.110848
0.110589
0.109977
0.110185
0.109634
0.109895
0.109785
0.109688
0.109217
0.109553
0.109512
0.109483
0.109086
0.10929
0.114583
0.199841
0.199762
0.114927
0.109689
0.109091
0.109089
0.109515
0.109159
0.109219
0.109301
0.109794
0.109907
0.109641
0.109804
0.109998
0.110615
0.110476
0.110794
0.111569
0.112033
0.112203
0.113539
0.115713
0.123551
0.165476
0.248358
0.236298
0.210252
0.18006
0.128137
0.312509
0.347724
0.540331
0.615401
0.335961
0.241255
0.286968
0.191812
0.209438
0.235504
0.248323
0.16521
0.123476
0.116121
0.113119
0.112612
0.112032
0.111568
0.110794
0.110875
0.110219
0.109994
0.109803
0.109641
0.109506
0.109393
0.109297
0.10922
0.10956
0.109516
0.10909
0.109089
0.109689
0.114575
0.199761
0.19929
0.115402
0.109719
0.109489
0.109091
0.109118
0.109162
0.109225
0.109304
0.109405
0.109915
0.110055
0.110213
0.110014
0.11063
0.110491
0.110812
0.111196
0.111657
0.112252
0.113643
0.116165
0.124679
0.176245
0.248783
0.2308
0.202773
0.169204
0.0704617
0.230359
0.64046
0.723758
0.718546
0.629702
0.281694
0.157041
0.17747
0.202037
0.229901
0.248676
0.17618
0.124863
0.116152
0.113225
0.112249
0.111654
0.111601
0.111214
0.110501
0.110233
0.110003
0.110213
0.109657
0.109515
0.109798
0.109704
0.109626
0.109563
0.109517
0.10949
0.109093
0.109718
0.115049
0.199288
0.19929
0.115047
0.109321
0.109091
0.109094
0.109517
0.109563
0.109627
0.109701
0.109405
0.109911
0.10966
0.110215
0.11041
0.11063
0.110502
0.111211
0.111194
0.111657
0.112249
0.113231
0.116581
0.125015
0.176282
0.248755
0.230757
0.202353
0.165439
0.0762924
0.0852451
0.48628
0.70437
0.718846
0.558884
0.213151
0.343875
0.191087
0.202722
0.229894
0.248621
0.176164
0.124855
0.116563
0.113226
0.112659
0.111656
0.111601
0.111214
0.110501
0.110233
0.110003
0.110213
0.109658
0.109517
0.109399
0.109702
0.109625
0.109166
0.109118
0.109092
0.109091
0.109322
0.115402
0.199288
0.199862
0.114926
0.109689
0.109092
0.109487
0.109116
0.109164
0.109621
0.109697
0.109392
0.109513
0.110045
0.110204
0.10999
0.110214
0.110478
0.110795
0.111569
0.112033
0.1122
0.113122
0.116128
0.123545
0.165376
0.248223
0.236158
0.209204
0.170017
0.0415602
0.0277821
0.0502959
0.5616
0.576667
0.0392041
0.393851
0.301512
0.194161
0.209579
0.235431
0.247951
0.165047
0.123055
0.116113
0.113532
0.112614
0.111622
0.111565
0.110794
0.110875
0.110219
0.109992
0.110205
0.110045
0.109908
0.109793
0.109302
0.109221
0.109159
0.109116
0.109487
0.10949
0.109689
0.114926
0.199761
0.199741
0.114582
0.10929
0.109085
0.109084
0.109113
0.109551
0.109218
0.109688
0.109388
0.109894
0.109628
0.109788
0.109978
0.110591
0.110849
0.111152
0.111516
0.11196
0.1121
0.112884
0.115118
0.120584
0.14564
0.237619
0.247155
0.224132
0.194601
0.15608
0.161961
0.103863
0.24565
0.263164
0.376224
0.0745552
0.174049
0.196464
0.2232
0.246778
0.237439
0.145216
0.120534
0.115108
0.112883
0.112102
0.11155
0.111108
0.110744
0.110443
0.110188
0.109969
0.110187
0.109635
0.109895
0.109785
0.109688
0.109217
0.109552
0.109511
0.109085
0.109086
0.109289
0.114582
0.199741
0.199811
0.114942
0.109683
0.10908
0.109076
0.109101
0.109143
0.109202
0.109276
0.109366
0.109476
0.109606
0.109764
0.110338
0.110551
0.110797
0.111083
0.111025
0.111847
0.111952
0.11262
0.113781
0.117063
0.12795
0.196659
0.261469
0.242825
0.21584
0.191753
0.182316
0.273408
0.139834
0.0323302
0.113773
0.160155
0.189875
0.214761
0.242105
0.261783
0.195914
0.12775
0.117045
0.114196
0.113035
0.111953
0.111847
0.111427
0.110685
0.110392
0.110547
0.109943
0.110159
0.110007
0.109481
0.109369
0.109276
0.109201
0.109143
0.109503
0.109476
0.10908
0.109285
0.114588
0.199709
0.199765
0.114965
0.109283
0.109472
0.109466
0.109095
0.109531
0.109589
0.10966
0.109749
0.10985
0.109582
0.11012
0.109902
0.110493
0.110335
0.110999
0.110918
0.111306
0.111773
0.112362
0.113184
0.115295
0.119955
0.142005
0.241501
0.259847
0.240085
0.21587
0.197952
0.191044
0.173063
0.165016
0.176942
0.194659
0.214831
0.239418
0.259884
0.241517
0.141521
0.119925
0.114864
0.113598
0.112776
0.112183
0.111712
0.111326
0.111001
0.110332
0.110495
0.110297
0.110125
0.109978
0.109851
0.10935
0.109259
0.109187
0.10913
0.109492
0.109466
0.109073
0.10968
0.114614
0.199763
0.199712
0.114642
0.109276
0.109064
0.109456
0.109478
0.109117
0.109174
0.109638
0.109721
0.109429
0.10994
0.109681
0.109848
0.110432
0.110653
0.110908
0.111207
0.111556
0.111572
0.112501
0.112747
0.113718
0.115801
0.121617
0.156371
0.254983
0.25966
0.242693
0.224058
0.210069
0.202238
0.201255
0.208922
0.223504
0.242299
0.259709
0.255155
0.155995
0.121143
0.115794
0.113714
0.112746
0.1125
0.111983
0.111153
0.110804
0.110502
0.110648
0.110038
0.110243
0.110081
0.109548
0.10982
0.109325
0.109237
0.109169
0.109115
0.109478
0.109058
0.109461
0.109676
0.114642
0.199711
0.199529
0.115037
0.109274
0.109449
0.109443
0.109465
0.109497
0.10915
0.109219
0.109694
0.10979
0.109899
0.109629
0.109784
0.109968
0.110565
0.110408
0.111072
0.110988
0.111358
0.111809
0.112356
0.113471
0.114509
0.116695
0.121765
0.156307
0.241129
0.261342
0.247061
0.235823
0.230302
0.230191
0.235695
0.246977
0.261594
0.241115
0.156038
0.121692
0.116686
0.114506
0.113468
0.112767
0.111809
0.111764
0.110993
0.110673
0.110801
0.110173
0.109963
0.109784
0.110032
0.1099
0.109393
0.109294
0.109212
0.109149
0.109097
0.109463
0.109043
0.109449
0.109673
0.115038
0.199629
0.199417
0.115103
0.109271
0.109038
0.109426
0.109051
0.109479
0.109528
0.109587
0.109664
0.10975
0.109457
0.109577
0.109721
0.109891
0.110473
0.110288
0.110542
0.111218
0.11114
0.111527
0.111979
0.112531
0.113635
0.114635
0.11668
0.121553
0.141758
0.196036
0.237024
0.247678
0.248408
0.248424
0.247761
0.237381
0.19566
0.141423
0.121508
0.116672
0.11421
0.113217
0.112528
0.11239
0.111934
0.111549
0.110821
0.110935
0.110692
0.110476
0.110287
0.110123
0.109979
0.109463
0.109352
0.10966
0.10919
0.109525
0.10908
0.109048
0.109025
0.109038
0.10967
0.115104
0.199416
0.199176
0.114936
0.109287
0.109023
0.10941
0.109429
0.109458
0.109504
0.10956
0.109628
0.109312
0.109409
0.109523
0.109659
0.110206
0.110381
0.110573
0.110401
0.11105
0.111334
0.111256
0.111633
0.112483
0.113004
0.113633
0.11451
0.116197
0.119921
0.12787
0.145463
0.165001
0.175939
0.175959
0.164944
0.145341
0.127485
0.1199
0.116191
0.114507
0.113631
0.112589
0.112073
0.111635
0.111663
0.111338
0.111048
0.110402
0.110176
0.11038
0.110209
0.110056
0.10953
0.109411
0.10931
0.10923
0.109557
0.109504
0.109456
0.109031
0.10901
0.10942
0.109288
0.114936
0.199075
0.198407
0.115283
0.109334
0.109406
0.109394
0.109408
0.10904
0.109477
0.109529
0.109591
0.109274
0.10976
0.109867
0.109988
0.110123
0.109887
0.110454
0.110252
0.110483
0.111129
0.111409
0.11172
0.111677
0.11248
0.112944
0.113055
0.1137
0.114863
0.117048
0.120146
0.12313
0.124596
0.124944
0.123114
0.120137
0.117045
0.11486
0.114119
0.113473
0.112531
0.112068
0.112073
0.111322
0.111008
0.111127
0.11088
0.110654
0.110061
0.110281
0.110125
0.109988
0.109864
0.109364
0.10927
0.109591
0.109133
0.109078
0.109036
0.109408
0.109393
0.109008
0.109333
0.115284
0.198507
0.197604
0.115716
0.109405
0.108992
0.109375
0.108992
0.109411
0.109449
0.109098
0.109157
0.109226
0.109316
0.109803
0.109523
0.11004
0.10978
0.10994
0.110115
0.110316
0.110927
0.110767
0.111031
0.111319
0.112038
0.11198
0.112354
0.112737
0.113183
0.114196
0.115109
0.115699
0.116567
0.116152
0.115697
0.114688
0.113775
0.113181
0.112739
0.112355
0.111978
0.112039
0.111322
0.111025
0.111167
0.110535
0.110316
0.110118
0.109937
0.110182
0.109648
0.109914
0.109412
0.109311
0.109226
0.109159
0.109496
0.109052
0.109012
0.10899
0.109375
0.109389
0.109405
0.116068
0.197604
0.196872
0.116539
0.10989
0.108975
0.109356
0.108967
0.108988
0.109023
0.109064
0.109119
0.109182
0.109259
0.109349
0.10945
0.109956
0.109682
0.109824
0.109978
0.110149
0.110344
0.110548
0.111166
0.111405
0.111261
0.111525
0.111808
0.112493
0.112365
0.113032
0.112882
0.113533
0.113225
0.113224
0.113115
0.112878
0.113032
0.112778
0.112085
0.112218
0.111935
0.111667
0.111406
0.111166
0.110552
0.110741
0.110554
0.109986
0.110224
0.110086
0.109563
0.10945
0.109346
0.109259
0.109183
0.109519
0.109465
0.109024
0.108987
0.108968
0.109356
0.108976
0.109492
0.116188
0.196872
0.196026
0.116665
0.109593
0.109358
0.109337
0.108947
0.108963
0.108994
0.109032
0.109086
0.10954
0.10961
0.109689
0.109776
0.109479
0.109588
0.109713
0.10985
0.11
0.110162
0.110335
0.110532
0.110733
0.111334
0.111551
0.111771
0.111978
0.112187
0.112364
0.112099
0.112201
0.112246
0.112246
0.112613
0.112513
0.112363
0.111778
0.111976
0.111366
0.111549
0.111337
0.110733
0.110533
0.11074
0.110173
0.110404
0.110253
0.109724
0.109989
0.109482
0.109379
0.109287
0.109209
0.10954
0.109483
0.109037
0.108995
0.108963
0.109346
0.109339
0.108959
0.109592
0.11702
0.196064
0.195112
0.117139
0.109697
0.109341
0.108923
0.109326
0.109339
0.108968
0.109004
0.109445
0.1091
0.109163
0.109237
0.109709
0.109405
0.1099
0.11001
0.10973
0.109864
0.110402
0.110555
0.110712
0.110877
0.111049
0.111222
0.111395
0.111556
0.111712
0.111441
0.111958
0.111621
0.112064
0.112064
0.112034
0.11196
0.111849
0.111711
0.111554
0.110992
0.110822
0.111049
0.110481
0.110711
0.110558
0.110402
0.109868
0.109736
0.110008
0.109508
0.109401
0.10971
0.109234
0.10956
0.109498
0.109051
0.109002
0.108967
0.108939
0.108928
0.10932
0.109341
0.109698
0.1175
0.195195
0.194551
0.11797
0.109806
0.10893
0.109301
0.109306
0.109318
0.109341
0.108974
0.10941
0.109061
0.109513
0.109574
0.10925
0.109326
0.109423
0.109915
0.110014
0.109733
0.110254
0.110381
0.110117
0.110257
0.110398
0.110538
0.110681
0.111202
0.11093
0.111425
0.111109
0.111569
0.111197
0.111599
0.111164
0.111514
0.111025
0.110928
0.111202
0.111077
0.110538
0.110796
0.110254
0.11012
0.110383
0.110256
0.109735
0.110014
0.10952
0.109814
0.109728
0.109648
0.109179
0.109513
0.109063
0.109012
0.10897
0.108941
0.108917
0.108906
0.109301
0.108929
0.109806
0.117621
0.194529
0.193868
0.118089
0.110309
0.109313
0.108886
0.108887
0.108898
0.109316
0.108941
0.108979
0.109021
0.109466
0.10913
0.109584
0.109261
0.109735
0.109817
0.109519
0.110008
0.109717
0.109829
0.109942
0.110454
0.110572
0.110288
0.110406
0.110904
0.111002
0.110685
0.110749
0.111191
0.111215
0.110819
0.111192
0.111152
0.111083
0.110605
0.110507
0.110808
0.110692
0.110574
0.110455
0.109944
0.110225
0.110118
0.11001
0.109518
0.109421
0.109338
0.109658
0.109587
0.109127
0.109467
0.109022
0.108978
0.108942
0.109316
0.109294
0.109285
0.109284
0.108914
0.11031
0.118089
0.193767
0.193142
0.118543
0.110023
0.109301
0.109267
0.108868
0.108875
0.109291
0.108914
0.108945
0.108981
0.109031
0.109474
0.109533
0.109593
0.109661
0.109337
0.109415
0.109504
0.109594
0.110083
0.11018
0.109886
0.11038
0.110476
0.110566
0.110254
0.11073
0.110392
0.110443
0.110482
0.110896
0.110499
0.110882
0.110849
0.110797
0.110329
0.110247
0.110569
0.110475
0.109984
0.109885
0.10978
0.109688
0.109989
0.109507
0.109417
0.109334
0.109261
0.109593
0.109531
0.109078
0.109426
0.109382
0.109346
0.109314
0.109292
0.108877
0.108869
0.108869
0.1093
0.110418
0.118891
0.19315
0.192668
0.118978
0.110127
0.109289
0.109252
0.109249
0.108854
0.108874
0.109286
0.108918
0.109346
0.109386
0.10943
0.109477
0.109139
0.109591
0.109658
0.109728
0.109797
0.109476
0.109565
0.11004
0.109727
0.110205
0.110287
0.10997
0.110428
0.110101
0.110546
0.110187
0.110614
0.110237
0.11023
0.110616
0.110592
0.110548
0.110094
0.11043
0.110364
0.109892
0.109807
0.110121
0.109641
0.109559
0.109481
0.1094
0.109326
0.109656
0.109195
0.109531
0.109479
0.109429
0.109387
0.109348
0.109316
0.109288
0.108873
0.108854
0.10885
0.108852
0.109289
0.110128
0.119324
0.192669
0.192137
0.119736
0.110622
0.108881
0.109238
0.109235
0.109236
0.10925
0.109264
0.108888
0.108918
0.108952
0.10899
0.109036
0.109475
0.109137
0.109588
0.109646
0.109314
0.109379
0.109845
0.109914
0.109584
0.109661
0.110122
0.109783
0.109846
0.109895
0.109944
0.110371
0.109997
0.110009
0.110005
0.109999
0.110374
0.109944
0.110296
0.109849
0.109788
0.109724
0.109653
0.10959
0.109915
0.109846
0.109381
0.109311
0.109645
0.109194
0.109529
0.109083
0.109034
0.108991
0.109349
0.10892
0.108891
0.108867
0.109249
0.109236
0.109235
0.109237
0.109279
0.110228
0.119737
0.192132
0.191644
0.120126
0.110719
0.10887
0.108825
0.10882
0.108822
0.109231
0.109242
0.108866
0.109287
0.109316
0.10935
0.109385
0.109032
0.109078
0.109522
0.109177
0.10923
0.109289
0.109744
0.109408
0.109462
0.109523
0.109588
0.110029
0.109684
0.110123
0.110157
0.109791
0.109804
0.109814
0.109814
0.110203