/*--------------------------------*- C++ -*----------------------------------*\
  =========                 |
  \\      /  F ield         | OpenFOAM: The Open Source CFD Toolbox
   \\    /   O peration     | Website:  https://openfoam.org
    \\  /    A nd           | Version:  11
     \\/     M anipulation  |
\*---------------------------------------------------------------------------*/
FoamFile
{
    format      ascii;
    class       volScalarField;
    location    "189";
    object      p;
}
// * * * * * * * * * * * * * * * * * * * * * * * * * * * * * * * * * * * * * //

dimensions      [0 2 -2 0 0 0 0];

internalField   nonuniform List<scalar> 
272944
(
0.000189453
0.000236092
0.000231979
0.000249623
0.000236944
0.00024395
0.000247914
0.000240702
0.000255314
0.000242709
0.000258087
0.000247906
0.000258837
0.000253318
0.000259638
0.000257534
0.0002607
0.000260102
0.000261177
0.000260766
0.000261065
0.000260565
0.00026003
0.000259399
0.000259119
0.00025935
0.000258832
0.000257869
0.000258148
0.000246813
0.000253166
0.000198465
0.000198427
0.000253187
0.000247072
0.000258518
0.000258265
0.000259019
0.000259555
0.000259298
0.000259664
0.000260204
0.000260798
0.000261338
0.000261107
0.000261546
0.000260486
0.000261116
0.000257981
0.000260072
0.000253729
0.00025915
0.000248184
0.000258366
0.000243102
0.000255814
0.000241201
0.000248393
0.000244317
0.000237291
0.000250034
0.000232423
0.000236537
0.000189749
0.000221006
0.000262635
0.000261168
0.000278616
0.000261189
0.000272105
0.000273466
0.000268402
0.000281668
0.000269959
0.000284689
0.000274798
0.00028541
0.000279634
0.000285383
0.000282806
0.000285393
0.000284434
0.000285739
0.000285722
0.00028617
0.000286238
0.000286526
0.000286718
0.00028638
0.000285726
0.000285052
0.000284415
0.000284798
0.000286891
0.000286326
0.000292933
0.00029292
0.000286383
0.000287143
0.000285187
0.000284737
0.000285267
0.000285859
0.000286558
0.00028692
0.000286739
0.000286468
0.000286473
0.000286038
0.000286051
0.000284719
0.000285743
0.000283168
0.000285792
0.000280063
0.000285842
0.000275161
0.00028503
0.000270345
0.000282099
0.000268939
0.000273916
0.00027252
0.000261568
0.000279038
0.000261637
0.000263089
0.000221296
0.000221659
0.000267795
0.000269258
0.000279645
0.000266174
0.000273207
0.000275727
0.000269077
0.000282302
0.000269841
0.000284254
0.000273863
0.000284145
0.00027851
0.000284689
0.000282693
0.000286275
0.000286419
0.000288676
0.000289391
0.000290805
0.000291911
0.000293055
0.000293945
0.000294582
0.000295067
0.000294988
0.000295406
0.00029426
0.000292135
0.00029212
0.000276247
0.000276267
0.000292227
0.000292396
0.00029461
0.000295724
0.000295208
0.00029522
0.000294709
0.0002941
0.000293253
0.00029218
0.000291159
0.000289782
0.00028904
0.000286764
0.000286666
0.00028313
0.000285182
0.000279043
0.000284683
0.000274344
0.000284659
0.000270241
0.00028277
0.0002696
0.000276185
0.000273561
0.000266518
0.000280091
0.000269785
0.000268304
0.000221983
0.00024335
0.000286868
0.000282422
0.000304137
0.000285265
0.000297401
0.000297693
0.000292713
0.000305516
0.000293331
0.000307738
0.000297165
0.000307286
0.000300887
0.000306022
0.00030258
0.000304219
0.000301876
0.000301311
0.00029925
0.00029783
0.000295814
0.000293891
0.000291851
0.000289914
0.000288126
0.000286574
0.000284938
0.000284707
0.000283039
0.000285445
0.000286809
0.000286851
0.000285565
0.000283238
0.00028499
0.000285265
0.000286883
0.00028837
0.000290098
0.00029202
0.000294094
0.000296086
0.000298185
0.000299667
0.00030176
0.000302318
0.000304676
0.00030306
0.000306507
0.000301374
0.000307771
0.000297634
0.000308176
0.000293746
0.000305972
0.000293197
0.000298102
0.000297677
0.000285571
0.000304576
0.000282971
0.000287403
0.000243694
0.000224264
0.000272003
0.000267202
0.000281835
0.000266326
0.000275539
0.000276188
0.000270669
0.000282962
0.000270728
0.000284709
0.000274037
0.000283946
0.000277621
0.000283106
0.000280286
0.000282923
0.000282074
0.000283406
0.000283379
0.000283942
0.000283891
0.000283878
0.000283576
0.000283186
0.000282583
0.000282076
0.000281569
0.000281126
0.000280762
0.000281052
0.000277505
0.000277559
0.000281177
0.00028092
0.000281329
0.000281833
0.000282385
0.0002829
0.000283483
0.000283861
0.000284164
0.000284203
0.000284299
0.000283785
0.00028385
0.000282534
0.000283403
0.000280767
0.000283564
0.000278071
0.000284416
0.000274532
0.000285202
0.000271197
0.000283417
0.000271111
0.00027656
0.00027583
0.000266646
0.000282288
0.000267752
0.000272558
0.000224644
0.00023458
0.000281588
0.000275608
0.000296426
0.000277776
0.000289769
0.000289592
0.000284766
0.000297051
0.000284825
0.000298854
0.000288005
0.000297758
0.00029099
0.000295782
0.000291928
0.000293183
0.000290494
0.000289517
0.000286814
0.000284596
0.000281727
0.000279031
0.000276155
0.000273488
0.00027087
0.000268595
0.000266287
0.000264746
0.000262527
0.000263119
0.000260587
0.000260646
0.000263279
0.000262741
0.000264963
0.000266494
0.000268814
0.000271145
0.000273832
0.000276548
0.00027944
0.000282137
0.000285008
0.000287235
0.000289939
0.000290908
0.000293597
0.000292345
0.000296183
0.000291407
0.000298221
0.000288504
0.000299342
0.000285277
0.000297475
0.00028518
0.00028997
0.000290083
0.000278116
0.000296855
0.000276099
0.000282088
0.000234953
0.000247384
0.000274121
0.000278364
0.000295821
0.00027752
0.000288557
0.00028748
0.000282611
0.000293834
0.00028134
0.000294459
0.000283016
0.000291919
0.000284433
0.000288512
0.000284109
0.000284916
0.000281997
0.000281017
0.000278546
0.000276677
0.000274149
0.000271715
0.000268911
0.000266233
0.000263319
0.000260848
0.000258235
0.000256497
0.000254719
0.000254685
0.000252557
0.000252613
0.000254849
0.000254983
0.000256788
0.00025849
0.000261077
0.000263564
0.000266538
0.0002693
0.000272163
0.000274624
0.000277148
0.000279009
0.00028148
0.000282452
0.00028537
0.000284579
0.000288978
0.000284919
0.000292444
0.000283534
0.000294943
0.00028181
0.000294286
0.000283076
0.000287951
0.000288957
0.000277888
0.000296214
0.000278804
0.00027458
0.000247747
0.000239597
0.000269276
0.00027175
0.000291611
0.000272306
0.000284255
0.00028292
0.000278342
0.000289468
0.000277086
0.000290136
0.000278693
0.000287465
0.000279811
0.000283523
0.000278599
0.000278623
0.000274699
0.00027241
0.000268332
0.000264629
0.000260104
0.000255686
0.000250883
0.000246413
0.000241768
0.000237866
0.000233862
0.000231062
0.000228129
0.000227292
0.000225008
0.000225067
0.000227454
0.000228378
0.000231361
0.000234196
0.000238219
0.000242114
0.000246749
0.000251231
0.000256086
0.000260572
0.000265143
0.000268847
0.000272915
0.000275208
0.00027914
0.000279122
0.000284046
0.00028034
0.000287994
0.000279211
0.000290637
0.000277605
0.000290006
0.000278888
0.000283461
0.000284726
0.000272712
0.000291999
0.000272171
0.000269706
0.000239946
0.000255461
0.000282627
0.00028534
0.000304797
0.000284733
0.000296946
0.000294435
0.000289907
0.000299947
0.000287113
0.000299052
0.00028673
0.00029423
0.000285355
0.000287619
0.000281251
0.000279717
0.000274226
0.000270332
0.000264662
0.000259383
0.000253272
0.000247267
0.000240743
0.000234633
0.000228202
0.000222833
0.000217305
0.00021345
0.000209624
0.000208021
0.000206045
0.000206114
0.000208183
0.00020983
0.000213685
0.000217615
0.00022324
0.000228666
0.000235095
0.00024118
0.000247699
0.000253749
0.000259922
0.000265223
0.000270895
0.000274799
0.000280285
0.000281817
0.000288196
0.000285899
0.00029476
0.000287261
0.000299607
0.000287695
0.000300531
0.000290492
0.000295037
0.000297523
0.00028525
0.000305273
0.000285828
0.000283067
0.000255713
0.000242391
0.000270393
0.000272242
0.000292278
0.000272027
0.000284348
0.000281466
0.000277063
0.000286686
0.000273908
0.000285451
0.000273018
0.00028009
0.00027089
0.000272565
0.000265574
0.000263141
0.00025662
0.000251442
0.000244285
0.000237292
0.000229242
0.000221194
0.000212469
0.000204307
0.000195736
0.000188574
0.000181117
0.000175846
0.00017059
0.000168122
0.000165726
0.000165801
0.000168309
0.00017083
0.000176087
0.0001814
0.000188944
0.000196198
0.000204838
0.000213025
0.000221753
0.000229801
0.000237879
0.000244886
0.000252057
0.00025725
0.000263747
0.000266172
0.000273168
0.000271484
0.00028066
0.000273595
0.000286049
0.000274513
0.000287264
0.000277648
0.000282118
0.000285066
0.000272752
0.000292948
0.000272857
0.000270878
0.000242622
0.000258523
0.000285341
0.000286779
0.000307286
0.000286338
0.000298938
0.000295108
0.000290614
0.000299178
0.000285864
0.000296136
0.000282712
0.000288231
0.000277541
0.000277323
0.000268338
0.00026363
0.000254653
0.000246803
0.000236769
0.000226741
0.00021551
0.000204264
0.000192186
0.000180851
0.000168957
0.000158943
0.000148563
0.000141164
0.000133949
0.00013033
0.000127683
0.000127764
0.000130531
0.000134238
0.00014148
0.00014891
0.000159354
0.000169431
0.000181384
0.000192774
0.000204897
0.000216179
0.000227434
0.000237439
0.000247471
0.000255335
0.000264296
0.000268984
0.000277966
0.000278196
0.000288854
0.000283308
0.000296727
0.000286452
0.000299763
0.000291228
0.000295814
0.000299711
0.000287162
0.00030807
0.000287489
0.000285918
0.000258839
0.000248348
0.000274963
0.000275942
0.000296365
0.000275235
0.000287694
0.000283264
0.000278745
0.000286544
0.000273081
0.000282502
0.000268637
0.00027316
0.000261638
0.000260143
0.000249861
0.000243442
0.0002326
0.000222508
0.000209983
0.000197146
0.000182823
0.000168333
0.000152693
0.000137879
0.00012227
0.000109042
9.53097e-05
8.5471e-05
7.59014e-05
7.08224e-05
6.77581e-05
6.78428e-05
7.10241e-05
7.61977e-05
8.58309e-05
9.57548e-05
0.000109582
0.000122857
0.000138482
0.000153288
0.00016898
0.000183554
0.000197928
0.000210732
0.000223245
0.000233351
0.000244192
0.000250584
0.000260857
0.000262356
0.000273824
0.000269268
0.000283131
0.000273713
0.000287181
0.000279409
0.000283962
0.000288384
0.000275943
0.000297071
0.000276668
0.000275647
0.000248836
0.000259558
0.000285523
0.000286152
0.000306741
0.000285324
0.000297687
0.000292468
0.000287722
0.000294344
0.000280313
0.000288231
0.000273262
0.000275924
0.000262628
0.000258797
0.000245985
0.000236606
0.000222438
0.000208655
0.000192019
0.000174744
0.000155555
0.000136043
0.000115026
9.50174e-05
7.39779e-05
5.60423e-05
3.75076e-05
2.40619e-05
1.11677e-05
3.98317e-06
3.42412e-07
4.21052e-07
4.13954e-06
1.14067e-05
2.43849e-05
3.7966e-05
5.66744e-05
7.47185e-05
9.57879e-05
0.000115757
0.00013679
0.000156369
0.000175601
0.00019286
0.0002095
0.000223288
0.000237439
0.000246796
0.000259611
0.000263415
0.000276647
0.000273969
0.000288969
0.000281038
0.00029501
0.000288347
0.000293092
0.000298268
0.00028591
0.000307353
0.000286893
0.000286325
0.000260193
0.000254093
0.000279579
0.000280233
0.000300233
0.000278749
0.000290737
0.000284815
0.000279861
0.000285369
0.000270952
0.00027748
0.000261657
0.000262603
0.000247791
0.000241741
0.000226614
0.00021429
0.000196864
0.000179207
0.000158256
0.000136105
0.000111525
8.62712e-05
5.90354e-05
3.28648e-05
5.30409e-06
-1.84193e-05
-4.28811e-05
-6.08848e-05
-7.7901e-05
-8.77898e-05
-9.18206e-05
-9.17154e-05
-8.7575e-05
-7.76088e-05
-6.05289e-05
-4.23773e-05
-1.77025e-05
6.16355e-06
3.3781e-05
5.99002e-05
8.71644e-05
0.000112453
0.000137046
0.000159185
0.000180159
0.00019781
0.000215187
0.000227494
0.000242634
0.00024864
0.000263386
0.000262422
0.000278269
0.000271726
0.000286012
0.000280413
0.000285399
0.000291359
0.000279403
0.00030089
0.000280981
0.000280365
0.00025476
0.000260336
0.000285264
0.00028625
0.000305439
0.000284197
0.000295558
0.000288943
0.000283577
0.000287694
0.000272609
0.000277296
0.000260133
0.000258763
0.000241713
0.000232646
0.000214205
0.000197884
0.00017587
0.000152985
0.000126057
9.73336e-05
6.53852e-05
3.23579e-05
-3.35224e-06
-3.79369e-05
-7.44183e-05
-0.000106149
-0.000138683
-0.00016314
-0.000185771
-0.000199741
-0.000204866
-0.000204693
-0.000199396
-0.000185363
-0.000162715
-0.000138135
-0.000105356
-7.34768e-05
-3.69503e-05
-2.39087e-06
3.33911e-05
6.64506e-05
9.83708e-05
0.000127074
0.000154041
0.000176914
0.000198868
0.000215171
0.000233621
0.000242641
0.000259634
0.000260946
0.000278107
0.000273422
0.000288403
0.000284163
0.000289583
0.000296302
0.000285022
0.000306222
0.000287013
0.00028599
0.000260901
0.00025822
0.000282624
0.000284023
0.000302007
0.000281201
0.00029165
0.00028447
0.000278572
0.000281302
0.000265554
0.000268299
0.000249803
0.000245937
0.000226539
0.000214167
0.000192114
0.00017129
0.000144145
0.000115169
8.13195e-05
4.46893e-05
3.93296e-06
-3.86742e-05
-8.48124e-05
-0.000129996
-0.000177638
-0.000219668
-0.00026243
-0.000295431
-0.000324874
-0.000345159
-0.000351542
-0.000351326
-0.000344702
-0.000324353
-0.000294917
-0.000261791
-0.000218755
-0.000176587
-0.000128899
-8.37283e-05
-3.74587e-05
5.19402e-06
4.59018e-05
8.24746e-05
0.000116352
0.000145316
0.000172415
0.000193214
0.000215246
0.000227576
0.000246927
0.000250709
0.000269146
0.000266443
0.000282174
0.000279311
0.000285159
0.000292387
0.000282015
0.000302801
0.000284787
0.000283305
0.000258751
0.000261269
0.000285203
0.000287393
0.000303683
0.000283706
0.000292901
0.000285231
0.000278545
0.000279734
0.000263073
0.000263563
0.000243336
0.000236515
0.000214175
0.000197787
0.000171242
0.00014486
0.000111274
7.4709e-05
3.20441e-05
-1.45499e-05
-6.66377e-05
-0.000121567
-0.00018131
-0.000240448
-0.000302897
-0.000358984
-0.000415503
-0.000460547
-0.000498637
-0.000527706
-0.000533727
-0.000533531
-0.000527279
-0.000498089
-0.000459918
-0.000414715
-0.000357889
-0.000301693
-0.000239189
-0.000180018
-0.000120132
-6.51519e-05
-1.311e-05
3.34077e-05
7.60602e-05
0.00011259
0.000146141
0.000172476
0.000198964
0.000215305
0.000237599
0.00024434
0.000264482
0.000264014
0.000280731
0.000279449
0.000285957
0.000293504
0.00028432
0.000304305
0.000288063
0.000285905
0.000261865
0.00026063
0.000284225
0.00028733
0.000301406
0.000282695
0.000290232
0.000282245
0.000274574
0.00027421
0.000256522
0.000254561
0.000232468
0.000222336
0.000196709
0.000175765
0.000144038
0.000111229
7.00599e-05
2.44552e-05
-2.87313e-05
-8.7488e-05
-0.000153368
-0.000223691
-0.000300281
-0.000377137
-0.000458131
-0.000532437
-0.000606215
-0.000668036
-0.000717666
-0.000761878
-0.00076869
-0.00076852
-0.000761477
-0.000717096
-0.000667259
-0.00060523
-0.000531124
-0.000456758
-0.000375715
-0.000298823
-0.000222089
-0.000151733
-8.58736e-05
-2.71782e-05
2.59545e-05
7.14679e-05
0.00011258
0.000145359
0.000177065
0.000197955
0.000223508
0.000233568
0.000255569
0.000257481
0.000275211
0.000275543
0.000283015
0.000290787
0.000283214
0.000301914
0.000287879
0.000284921
0.000261308
0.00026152
0.000285528
0.000289332
0.00030092
0.00028388
0.000289256
0.000281172
0.000272235
0.000270263
0.000251261
0.000246638
0.000222284
0.000208446
0.000178956
0.000152754
0.00011498
7.45632e-05
2.43993e-05
-3.20815e-05
-9.80294e-05
-0.000171728
-0.000254859
-0.000344625
-0.000442939
-0.000543133
-0.000648848
-0.000747761
-0.000843387
-0.000926533
-0.000983688
-0.0010428
-0.00104359
-0.0010434
-0.00104238
-0.000983047
-0.000925579
-0.000842228
-0.000746244
-0.000647278
-0.000541515
-0.000441293
-0.000342851
-0.000253079
-0.000170004
-9.63668e-05
-3.04378e-05
2.59846e-05
7.61087e-05
0.000116541
0.000154313
0.000180418
0.000209768
0.000223506
0.000247756
0.000252264
0.000271246
0.000273197
0.000282029
0.000289945
0.000284508
0.000301534
0.000289922
0.000286206
0.000262311
0.000261076
0.000285449
0.000289893
0.000298953
0.000283704
0.000286552
0.000278596
0.000268159
0.00026455
0.000244069
0.000236584
0.000209748
0.000191761
0.000157944
0.000125751
8.09743e-05
3.17711e-05
-2.89832e-05
-9.82293e-05
-0.000179403
-0.000271092
-0.000374984
-0.000488574
-0.000613283
-0.000742622
-0.000878532
-0.00100992
-0.00113739
-0.00125808
-0.00134528
-0.00144509
-0.00144305
-0.001443
-0.00144494
-0.00134473
-0.00125693
-0.00113595
-0.00100818
-0.000876779
-0.00074076
-0.0006114
-0.000486605
-0.000373011
-0.000269174
-0.000177534
-9.63123e-05
-2.70397e-05
3.36745e-05
8.28105e-05
0.000127506
0.000159552
0.000193189
0.000211034
0.000237781
0.000245185
0.000265639
0.000269179
0.000279563
0.00028741
0.00028447
0.000299717
0.000290663
0.000286268
0.000261848
0.00026121
0.000285968
0.000291095
0.000297628
0.000284079
0.000284334
0.000276663
0.000264441
0.0002592
0.000236998
0.000226505
0.000196826
0.000174415
0.000135745
9.69768e-05
4.43477e-05
-1.48395e-05
-8.76909e-05
-0.000171929
-0.000271046
-0.000384513
-0.0005139
-0.000657611
-0.000816461
-0.000983922
-0.00115909
-0.0013336
-0.00148775
-0.00164003
-0.00170413
-0.00182793
-0.00181573
-0.00181573
-0.00182821
-0.0017042
-0.00163946
-0.00148629
-0.00133153
-0.00115713
-0.000981873
-0.000814324
-0.000655395
-0.000511673
-0.000382283
-0.000268827
-0.000169667
-8.54495e-05
-1.27291e-05
4.62962e-05
9.87785e-05
0.000137404
0.000175915
0.000198177
0.000227766
0.000238268
0.000260439
0.00026557
0.000277693
0.000285251
0.000284871
0.000298439
0.000291928
0.000286787
0.00026191
0.000260718
0.000285988
0.00029214
0.000295516
0.000283858
0.000281423
0.00027404
0.000259845
0.000252987
0.000228907
0.000215201
0.000182431
0.000155145
0.000111084
6.48788e-05
3.3863e-06
-6.71455e-05
-0.000153914
-0.000255366
-0.000375334
-0.000514258
-0.000673446
-0.00085298
-0.00105136
-0.00126475
-0.0014922
-0.00172173
-0.00194271
-0.00217923
-0.0023556
-0.00253567
-0.00250695
-0.0025064
-0.00253517
-0.00235497
-0.00217933
-0.00194275
-0.00172022
-0.00149012
-0.0012627
-0.00104928
-0.00085066
-0.000670982
-0.000511781
-0.000372884
-0.000252908
-0.000151506
-6.48882e-05
5.47472e-06
6.6804e-05
0.000112853
0.000156773
0.000183924
0.00021658
0.000230248
0.000254275
0.000260992
0.00027507
0.000282329
0.000284653
0.000296318
0.000292899
0.000286648
0.000261274
0.000259985
0.000286223
0.000292943
0.000293603
0.000283678
0.000278773
0.000271517
0.000255336
0.000246902
0.000220785
0.000203809
0.000167764
0.000135495
8.5678e-05
3.17428e-05
-3.9273e-05
-0.000122076
-0.000224136
-0.00034504
-0.000488787
-0.000657836
-0.000852946
-0.00107689
-0.0013254
-0.00160294
-0.0018833
-0.00217972
-0.00243804
-0.00268847
-0.002783
-0.00313151
-0.0031516
-0.00315115
-0.00312958
-0.00278071
-0.00268735
-0.00243791
-0.00218069
-0.00188267
-0.0016009
-0.0013233
-0.00107454
-0.000850341
-0.000655153
-0.000486078
-0.000342243
-0.000221331
-0.000119414
-3.6823e-05
3.39521e-05
8.7659e-05
0.000137302
0.000169476
0.000205409
0.000222252
0.000248226
0.00025652
0.000272614
0.000279777
0.000284592
0.000294445
0.00029365
0.00028681
0.000260443
0.000259241
0.000286473
0.000293805
0.000291412
0.000283365
0.000275836
0.000268607
0.000250471
0.000240367
0.000212044
0.000191678
0.000152102
0.000114412
5.83097e-05
-4.21611e-06
-8.57474e-05
-0.000182296
-0.000301363
-0.000444048
-0.000614331
-0.000817304
-0.00105197
-0.00132538
-0.00163501
-0.00197418
-0.00233636
-0.00277684
-0.00311957
-0.00373731
-0.00408431
-0.00424841
-0.00413144
-0.00413234
-0.00425173
-0.00408888
-0.00373759
-0.00311827
-0.00277612
-0.00233813
-0.00197344
-0.00163265
-0.00132288
-0.00104936
-0.00081439
-0.000611132
-0.000440686
-0.000298053
-0.000179257
-8.30615e-05
-1.87743e-06
6.03436e-05
0.000116264
0.000153926
0.000193454
0.000213643
0.000241752
0.000251732
0.000269846
0.000277031
0.000284414
0.000292303
0.000294566
0.000287182
0.000259843
0.000258801
0.000286101
0.000294198
0.00028958
0.000282892
0.000273167
0.000265866
0.000245999
0.000234238
0.000203795
0.000180221
0.000137205
9.43251e-05
3.20909e-05
-3.87329e-05
-0.000130826
-0.000241276
-0.000378
-0.000543922
-0.000743296
-0.000984428
-0.0012655
-0.00160318
-0.00197598
-0.00240085
-0.00291139
-0.00334786
-0.00405989
-0.00415402
-0.00454056
-0.00515471
-0.00521793
-0.00521364
-0.00514742
-0.00453696
-0.00416207
-0.00406784
-0.00334993
-0.00291177
-0.00240277
-0.00197507
-0.00160041
-0.00126269
-0.000981258
-0.00073971
-0.000540232
-0.000374539
-0.000238204
-0.000128194
-3.65141e-05
3.40088e-05
9.61257e-05
0.000139045
0.00018206
0.000205405
0.000235566
0.000247218
0.000267134
0.00027443
0.000283991
0.000290484
0.000295021
0.000286936
0.000259496
0.000259229
0.000285398
0.000294805
0.000287753
0.000282301
0.000270486
0.000262922
0.000241374
0.00022779
0.000195194
0.000168363
0.000121654
7.3279e-05
4.43511e-06
-7.54122e-05
-0.000178821
-0.00030427
-0.000459632
-0.000650317
-0.000879957
-0.00116004
-0.00149335
-0.00188233
-0.00233664
-0.00291384
-0.00343026
-0.00440979
-0.0044469
-0.00529484
-0.00525634
-0.00518156
-0.00496143
-0.00494289
-0.00515135
-0.00523903
-0.00529204
-0.00445963
-0.00442459
-0.00343526
-0.00291525
-0.00233916
-0.00188115
-0.0014904
-0.00115676
-0.000876443
-0.000646773
-0.000456322
-0.000301316
-0.000176292
-7.32841e-05
6.35511e-06
7.51472e-05
0.000123555
0.000170213
0.000196738
0.000228993
0.000242467
0.000264099
0.000271726
0.000283496
0.000288743
0.000295579
0.000286088
0.000259775
0.000258639
0.000284882
0.000294711
0.000286303
0.000281771
0.000268203
0.000260456
0.00023744
0.000222296
0.000187856
0.000158176
0.000108261
5.51198e-05
-1.94789e-05
-0.000107263
-0.000220945
-0.000360347
-0.000533818
-0.000748968
-0.00101128
-0.00133456
-0.0017235
-0.00217864
-0.00277418
-0.0033465
-0.00439905
-0.00477083
-0.00522742
-0.00453811
-0.00409007
-0.0038554
-0.00357317
-0.00352069
-0.00376872
-0.0040248
-0.00450098
-0.00522935
-0.0047965
-0.00441619
-0.00335184
-0.00277492
-0.00217999
-0.00172118
-0.00133096
-0.0010077
-0.000745469
-0.00053045
-0.000357237
-0.000218266
-0.000104965
-1.73404e-05
5.72011e-05
0.000110232
0.000159943
0.000189269
0.00022335
0.000238409
0.000261593
0.000269457
0.000282994
0.000287343
0.000295475
0.000285506
0.000259138
0.000257824
0.000284236
0.000295235
0.000284734
0.000281321
0.00026595
0.0002579
0.000233499
0.000216762
0.000180415
0.000147853
9.45442e-05
3.65379e-05
-4.40844e-05
-0.000140093
-0.000264165
-0.000417504
-0.0006083
-0.000845422
-0.00113955
-0.00148897
-0.00194406
-0.00243573
-0.00311463
-0.00407568
-0.00451553
-0.00530515
-0.00436004
-0.00394457
-0.00367497
-0.00417795
-0.00393416
-0.00392282
-0.00411751
-0.003571
-0.00384516
-0.00430817
-0.005314
-0.00455181
-0.00408825
-0.00311648
-0.00243679
-0.00194403
-0.00148581
-0.00113577
-0.000841692
-0.000604599
-0.00041402
-0.000261228
-0.000137644
-4.18554e-05
3.86367e-05
9.63911e-05
0.000149402
0.00018169
0.000217734
0.000234411
0.000259057
0.000267136
0.000282327
0.000285675
0.000296171
0.000285122
0.000258536
0.000257973
0.00028463
0.000294101
0.000284581
0.000280927
0.000264442
0.000256209
0.000230668
0.000212825
0.00017505
0.000140304
8.44899e-05
2.27855e-05
-6.24154e-05
-0.000164915
-0.000297501
-0.000462838
-0.000670498
-0.000929013
-0.0012609
-0.0016419
-0.00218262
-0.00269083
-0.00373862
-0.00416534
-0.00540014
-0.0046224
-0.00408216
-0.00330105
-0.00357265
-0.00419258
-0.00466339
-0.00477772
-0.00429073
-0.00353075
-0.00315764
-0.00397153
-0.00457514
-0.00542651
-0.0042003
-0.00374188
-0.00269192
-0.00218192
-0.00163985
-0.00125667
-0.000924587
-0.000666212
-0.000458935
-0.000294322
-0.000162357
-6.02034e-05
2.48003e-05
8.62339e-05
0.000141747
0.000176301
0.000213867
0.000231581
0.000257266
0.000265482
0.000281658
0.000285258
0.000295021
0.000285619
0.000258693
0.000246489
0.000286571
0.000291926
0.000282877
0.000280502
0.000262207
0.000254411
0.000227745
0.000209045
0.000169908
0.000133235
7.50509e-05
1.00241e-05
-7.93737e-05
-0.000187546
-0.000326925
-0.000500974
-0.00072034
-0.000986624
-0.00134811
-0.00170588
-0.00235942
-0.0027841
-0.00408069
-0.00452732
-0.00527518
-0.00413783
-0.00376878
-0.00358915
-0.00474346
-0.00742381
-0.00912606
-0.00880978
-0.0072018
-0.00477017
-0.00356999
-0.00364586
-0.0040369
-0.00526149
-0.00456152
-0.00409361
-0.00278573
-0.00235548
-0.00170466
-0.00134438
-0.000981827
-0.000715832
-0.00049701
-0.000323693
-0.000184923
-7.71828e-05
1.19898e-05
7.68127e-05
0.00013469
0.000171196
0.000210204
0.00022865
0.000255281
0.000263162
0.000281209
0.00028331
0.00029248
0.000287257
0.000247037
0.000252467
0.000285793
0.000291785
0.000285148
0.000280638
0.000262643
0.000254226
0.000226741
0.000207292
0.000167273
0.000129391
6.97384e-05
2.55782e-06
-8.96093e-05
-0.000201945
-0.000347622
-0.000530428
-0.000765031
-0.00104626
-0.00144814
-0.00182981
-0.00254094
-0.00313657
-0.00423929
-0.005148
-0.00519389
-0.00390589
-0.00425503
-0.00437913
-0.00757988
-0.0118816
-0.0137799
-0.0133357
-0.0113534
-0.00725193
-0.00433039
-0.00416941
-0.00376471
-0.00514312
-0.00517509
-0.0042653
-0.00313755
-0.00253604
-0.00182937
-0.00144529
-0.00104122
-0.000760271
-0.000526347
-0.000344217
-0.000199089
-8.7218e-05
4.70035e-06
7.168e-05
0.000131007
0.000168669
0.00020859
0.000227687
0.000254953
0.000263566
0.000281531
0.000285575
0.000291977
0.000286149
0.000252924
0.000197563
0.00029227
0.000275828
0.000286391
0.000276946
0.000260015
0.000252021
0.000224394
0.00020525
0.000164832
0.000126747
6.67246e-05
-9.57168e-07
-9.35252e-05
-0.000206977
-0.000353926
-0.000536346
-0.000771777
-0.00104716
-0.00144579
-0.00181712
-0.00251201
-0.00315713
-0.00411774
-0.00521045
-0.00499978
-0.00366854
-0.00405765
-0.00480004
-0.00919974
-0.0133354
-0.014935
-0.0150112
-0.0132102
-0.00868542
-0.00471325
-0.00410544
-0.00357818
-0.00494873
-0.00523824
-0.00415028
-0.00315864
-0.00250589
-0.00181657
-0.0014434
-0.00104188
-0.000766826
-0.000532188
-0.000350406
-0.000203943
-9.09021e-05
1.41506e-06
6.88305e-05
0.000128489
0.000166312
0.000206605
0.00022538
0.000252688
0.000260872
0.000277987
0.000286983
0.000275975
0.000292587
0.000198052
0.000197598
0.000292289
0.000275812
0.000286365
0.000276929
0.00025999
0.000251996
0.000224351
0.000205157
0.000164694
0.000126586
6.65143e-05
-1.24925e-06
-9.38418e-05
-0.000207333
-0.000354315
-0.000536757
-0.000772212
-0.00104767
-0.00144641
-0.00181754
-0.00251229
-0.00315819
-0.004119
-0.00520891
-0.00499183
-0.00363499
-0.00397968
-0.0047554
-0.00930521
-0.013781
-0.015014
-0.0150234
-0.0135085
-0.00868911
-0.00457633
-0.00408754
-0.00354316
-0.0049379
-0.00523566
-0.00415033
-0.00315886
-0.00250597
-0.00181682
-0.00144401
-0.0010425
-0.000767344
-0.000532612
-0.00035079
-0.000204253
-9.10685e-05
1.26425e-06
6.86327e-05
0.000128305
0.000166148
0.000206437
0.000225339
0.000252751
0.000260832
0.000277913
0.000287054
0.000276197
0.000292896
0.00019841
0.000252491
0.000285803
0.000291735
0.000285099
0.000280598
0.000262596
0.000254175
0.000226721
0.000207226
0.000167163
0.00012931
6.96631e-05
2.48614e-06
-8.96122e-05
-0.00020185
-0.000347478
-0.000530273
-0.000764865
-0.00104636
-0.00144848
-0.00183031
-0.00254119
-0.00313821
-0.00424013
-0.00514142
-0.00518988
-0.00384063
-0.00405539
-0.00400544
-0.00762364
-0.0120763
-0.0133112
-0.0131176
-0.0115404
-0.00725978
-0.00412825
-0.00417268
-0.00375617
-0.00514595
-0.00516659
-0.0042642
-0.00313838
-0.0025349
-0.00182938
-0.00144581
-0.00104163
-0.000760323
-0.000526231
-0.00034408
-0.000198881
-8.68386e-05
4.97932e-06
7.16777e-05
0.000130943
0.000168556
0.000208381
0.000227711
0.000255172
0.00026356
0.000281363
0.000285698
0.000292488
0.000286901
0.000253777
0.000246438
0.000286526
0.000291855
0.000282797
0.000280401
0.000262051
0.000254213
0.000227561
0.00020884
0.00016961
0.000132864
7.466e-05
9.57444e-06
-7.98129e-05
-0.000187951
-0.000327295
-0.000501387
-0.0007208
-0.000987364
-0.00134933
-0.00170769
-0.00236097
-0.00278853
-0.00408334
-0.00452771
-0.00526
-0.00409215
-0.00364785
-0.0035413
-0.00481206
-0.00741837
-0.00901165
-0.00894841
-0.00714411
-0.00494663
-0.00360758
-0.00360078
-0.00402051
-0.00524901
-0.00456227
-0.00409587
-0.00278824
-0.00235598
-0.00170589
-0.00134572
-0.000982835
-0.000716453
-0.000497412
-0.000324053
-0.000185212
-7.72812e-05
1.18138e-05
7.64879e-05
0.000134413
0.000170975
0.000209964
0.000228608
0.00025543
0.000263163
0.000281099
0.000283392
0.000292878
0.000287951
0.000247856
0.000257848
0.000284538
0.000294019
0.000284482
0.000280806
0.000264306
0.000255994
0.000230482
0.000212702
0.000174938
0.000140144
8.43622e-05
2.27229e-05
-6.24711e-05
-0.000164957
-0.000297505
-0.000462971
-0.000670746
-0.000929593
-0.00126179
-0.00164389
-0.00218383
-0.00269177
-0.00374169
-0.00414784
-0.00529066
-0.00454462
-0.00392104
-0.0032387
-0.00355872
-0.00393877
-0.00472509
-0.00466428
-0.00413601
-0.00360893
-0.00322175
-0.0038666
-0.00451067
-0.00531828
-0.00418274
-0.0037433
-0.00269167
-0.00218195
-0.00164092
-0.00125729
-0.00092509
-0.000666415
-0.00045897
-0.000294296
-0.000162355
-6.01784e-05
2.47513e-05
8.61265e-05
0.000141702
0.00017629
0.000213909
0.000231677
0.000257294
0.00026547
0.000281669
0.000285357
0.000295178
0.000285774
0.00025879
0.000257637
0.000284096
0.000295091
0.000284636
0.00028121
0.000265841
0.000257713
0.00023328
0.00021661
0.000180292
0.000147606
9.42622e-05
3.62943e-05
-4.43369e-05
-0.00014041
-0.000264454
-0.000417917
-0.00060891
-0.000846317
-0.00114082
-0.00149177
-0.00194722
-0.00244113
-0.00312321
-0.00406234
-0.00444253
-0.00523606
-0.00435474
-0.00403906
-0.00368883
-0.00417332
-0.00411374
-0.00409202
-0.00424561
-0.00371267
-0.00401474
-0.00433095
-0.00524937
-0.00448124
-0.00407517
-0.00312317
-0.00244124
-0.00194585
-0.00148759
-0.00113639
-0.000842117
-0.000604844
-0.000414177
-0.000261415
-0.000137931
-4.2189e-05
3.82445e-05
9.60704e-05
0.000149202
0.000181638
0.00021787
0.000234578
0.000259022
0.000266974
0.00028225
0.000285814
0.00029628
0.000284898
0.000257849
0.000258475
0.000284698
0.000294603
0.000286214
0.000281701
0.000268156
0.000260346
0.000237329
0.000222234
0.000187871
0.000158113
0.000108135
5.50319e-05
-1.96016e-05
-0.000107563
-0.000221321
-0.000360953
-0.000534672
-0.000750186
-0.00101269
-0.00133684
-0.00172598
-0.00218359
-0.00277914
-0.0033513
-0.00441231
-0.0047769
-0.00531806
-0.00461211
-0.00408189
-0.00381854
-0.00363671
-0.00361785
-0.00385254
-0.00409404
-0.00460802
-0.00533102
-0.00480378
-0.00443024
-0.00335489
-0.00277861
-0.00218359
-0.00172253
-0.00133243
-0.00100856
-0.000746203
-0.000530904
-0.00035761
-0.000218546
-0.000105214
-1.75182e-05
5.69757e-05
0.00010997
0.000159738
0.000189252
0.000223529
0.00023865
0.000261627
0.000269225
0.000282702
0.000287384
0.000295723
0.000285392
0.000258629
0.000259018
0.000285327
0.000294672
0.000287753
0.000282214
0.00027046
0.000262848