/*--------------------------------*- C++ -*----------------------------------*\
  =========                 |
  \\      /  F ield         | OpenFOAM: The Open Source CFD Toolbox
   \\    /   O peration     | Website:  https://openfoam.org
    \\  /    A nd           | Version:  11
     \\/     M anipulation  |
\*---------------------------------------------------------------------------*/
FoamFile
{
    format      ascii;
    class       volScalarField;
    location    "0";
    object      Ccy;
}
// * * * * * * * * * * * * * * * * * * * * * * * * * * * * * * * * * * * * * //

dimensions      [0 1 0 0 0 0 0];

internalField   nonuniform List<scalar> 
364800
(
-1.36869e-19
-0.00441594
-0.00919679
-0.0143727
-0.0199763
-0.026043
-0.0326109
-0.0397216
-0.0474199
-0.0557542
-0.0647773
-0.0745459
-0.0851217
-0.0965714
-0.108967
-0.122387
-0.136916
-0.152645
-0.169674
-0.18811
-0.208069
-0.229677
-0.253071
-0.278397
-0.305815
-0.335498
-0.367633
-0.402423
-0.440086
-0.480859
0.00441594
3.30986e-19
-0.00478085
-0.00995675
-0.0155604
-0.021627
-0.028195
-0.0353057
-0.0430039
-0.0513383
-0.0603613
-0.07013
-0.0807058
-0.0921555
-0.104551
-0.117971
-0.1325
-0.148229
-0.165258
-0.183694
-0.203653
-0.225261
-0.248655
-0.273981
-0.301399
-0.331082
-0.363217
-0.398007
-0.435669
-0.476443
0.00919679
0.00478085
0
-0.00517591
-0.0107795
-0.0168462
-0.0234141
-0.0305248
-0.0382231
-0.0465574
-0.0555805
-0.0653491
-0.0759249
-0.0873746
-0.0997704
-0.11319
-0.127719
-0.143448
-0.160477
-0.178913
-0.198872
-0.22048
-0.243874
-0.2692
-0.296618
-0.326301
-0.358436
-0.393226
-0.430888
-0.471662
0.0143727
0.00995675
0.00517591
-9.73364e-19
-0.00560361
-0.0116703
-0.0182382
-0.0253489
-0.0330472
-0.0413815
-0.0504046
-0.0601732
-0.070749
-0.0821987
-0.0945945
-0.108014
-0.122543
-0.138273
-0.155301
-0.173737
-0.193696
-0.215305
-0.238698
-0.264024
-0.291442
-0.321125
-0.35326
-0.388049
-0.425712
-0.466486
0.0199763
0.0155604
0.0107795
0.00560361
1.06715e-18
-0.00606665
-0.0126346
-0.0197453
-0.0274436
-0.0357779
-0.044801
-0.0545696
-0.0651454
-0.0765951
-0.0889909
-0.102411
-0.11694
-0.132669
-0.149698
-0.168134
-0.188093
-0.209701
-0.233094
-0.25842
-0.285838
-0.315521
-0.347656
-0.382446
-0.420108
-0.460882
0.026043
0.021627
0.0168462
0.0116703
0.00606665
-7.96602e-20
-0.00656796
-0.0136786
-0.0213769
-0.0297113
-0.0387343
-0.0485029
-0.0590788
-0.0705284
-0.0829242
-0.0963442
-0.110873
-0.126602
-0.143631
-0.162067
-0.182026
-0.203634
-0.227027
-0.252353
-0.279771
-0.309454
-0.341589
-0.376379
-0.414042
-0.454815
0.0326109
0.028195
0.0234141
0.0182382
0.0126346
0.00656796
1.09475e-18
-0.00711068
-0.0148089
-0.0231433
-0.0321664
-0.041935
-0.0525108
-0.0639605
-0.0763562
-0.0897762
-0.104305
-0.120034
-0.137063
-0.155499
-0.175458
-0.197066
-0.220459
-0.245785
-0.273203
-0.302886
-0.335021
-0.369811
-0.407473
-0.448246
0.0397216
0.0353057
0.0305248
0.0253489
0.0197453
0.0136786
0.00711068
2.82263e-18
-0.00769825
-0.0160326
-0.0250557
-0.0348243
-0.0454001
-0.0568498
-0.0692455
-0.0826655
-0.0971943
-0.112924
-0.129952
-0.148388
-0.168347
-0.189955
-0.213349
-0.238675
-0.266093
-0.295776
-0.327911
-0.3627
-0.400362
-0.441135
0.0474199
0.0430039
0.0382231
0.0330472
0.0274436
0.0213769
0.0148089
0.00769825
-1.11261e-18
-0.00833437
-0.0173574
-0.027126
-0.0377019
-0.0491515
-0.0615473
-0.0749672
-0.0894961
-0.105225
-0.122254
-0.14069
-0.160649
-0.182257
-0.20565
-0.230976
-0.258394
-0.288077
-0.320212
-0.355001
-0.392664
-0.433437
0.0557542
0.0513383
0.0465574
0.0413815
0.0357779
0.0297113
0.0231433
0.0160326
0.00833437
-2.69859e-18
-0.00902305
-0.0187917
-0.0293675
-0.0408172
-0.0532129
-0.0666329
-0.0811617
-0.0968909
-0.11392
-0.132356
-0.152315
-0.173923
-0.197316
-0.222642
-0.25006
-0.279743
-0.311878
-0.346667
-0.384329
-0.425102
0.0647773
0.0603613
0.0555805
0.0504046
0.044801
0.0387343
0.0321664
0.0250557
0.0173574
0.00902305
-5.99848e-19
-0.00976863
-0.0203444
-0.0317941
-0.0441898
-0.0576098
-0.0721386
-0.0878679
-0.104897
-0.123333
-0.143292
-0.1649
-0.188293
-0.213619
-0.241037
-0.270719
-0.302854
-0.337643
-0.375306
-0.416078
0.0745459
0.07013
0.0653491
0.0601732
0.0545696
0.0485029
0.041935
0.0348243
0.027126
0.0187917
0.00976863
1.42212e-18
-0.0105758
-0.0220255
-0.0344212
-0.0478412
-0.06237
-0.0780992
-0.0951281
-0.113564
-0.133523
-0.155131
-0.178524
-0.20385
-0.231268
-0.260951
-0.293085
-0.327874
-0.365537
-0.406309
0.0851217
0.0807058
0.0759249
0.070749
0.0651454
0.0590788
0.0525108
0.0454001
0.0377019
0.0293675
0.0203444
0.0105758
1.11567e-18
-0.0114497
-0.0238454
-0.0372654
-0.0517942
-0.0675234
-0.0845523
-0.102988
-0.122947
-0.144555
-0.167948
-0.193274
-0.220692
-0.250375
-0.282509
-0.317298
-0.354961
-0.395733
0.0965714
0.0921555
0.0873746
0.0821987
0.0765951
0.0705284
0.0639605
0.0568498
0.0491515
0.0408172
0.0317941
0.0220255
0.0114497
9.63834e-20
-0.0123957
-0.0258157
-0.0403445
-0.0560737
-0.0731026
-0.0915384
-0.111497
-0.133105
-0.156498
-0.181824
-0.209242
-0.238925
-0.27106
-0.305848
-0.343511
-0.384283
0.108967
0.104551
0.0997704
0.0945945
0.0889909
0.0829242
0.0763562
0.0692455
0.0615473
0.0532129
0.0441898
0.0344212
0.0238454
0.0123957
-6.66937e-19
-0.01342
-0.0279488
-0.043678
-0.0607068
-0.0791426
-0.0991016
-0.12071
-0.144103
-0.169428
-0.196846
-0.226529
-0.258664
-0.293452
-0.331114
-0.371887
0.122387
0.117971
0.11319
0.108014
0.102411
0.0963442
0.0897762
0.0826655
0.0749672
0.0666329
0.0576098
0.0478412
0.0372654
0.0258157
0.01342
5.77648e-18
-0.0145288
-0.030258
-0.0472869
-0.0657227
-0.0856816
-0.10729
-0.130683
-0.156008
-0.183426
-0.213109
-0.245243
-0.280032
-0.317694
-0.358466
0.136916
0.1325
0.127719
0.122543
0.11694
0.110873
0.104305
0.0971943
0.0894961
0.0811617
0.0721386
0.06237
0.0517942
0.0403445
0.0279488
0.0145288
2.50533e-19
-0.0157292
-0.0327581
-0.0511939
-0.0711528
-0.0927607
-0.116154
-0.141479
-0.168897
-0.19858
-0.230714
-0.265503
-0.303165
-0.343937
0.152645
0.148229
0.143448
0.138273
0.132669
0.126602
0.120034
0.112924
0.105225
0.0968909
0.0878679
0.0780992
0.0675234
0.0560737
0.043678
0.030258
0.0157292
-5.22444e-18
-0.0170288
-0.0354646
-0.0554236
-0.0770315
-0.100425
-0.12575
-0.153168
-0.18285
-0.214985
-0.249773
-0.287435
-0.328207
0.169674
0.165258
0.160477
0.155301
0.149698
0.143631
0.137063
0.129952
0.122254
0.11392
0.104897
0.0951281
0.0845523
0.0731026
0.0607068
0.0472869
0.0327581
0.0170288
1.32651e-18
-0.0184358
-0.0383947
-0.0600026
-0.0833957
-0.108721
-0.136139
-0.165821
-0.197956
-0.232744
-0.270406
-0.311177
0.18811
0.183694
0.178913
0.173737
0.168134
0.162067
0.155499
0.148388
0.14069
0.132356
0.123333
0.113564
0.102988
0.0915384
0.0791426
0.0657227
0.0511939
0.0354646
0.0184358
-3.3064e-19
-0.0199589
-0.0415668
-0.0649598
-0.0902854
-0.117703
-0.147386
-0.17952
-0.214308
-0.25197
-0.292741
0.208069
0.203653
0.198872
0.193696
0.188093
0.182026
0.175458
0.168347
0.160649
0.152315
0.143292
0.133523
0.122947
0.111497
0.0991016
0.0856816
0.0711528
0.0554236
0.0383947
0.0199589
-1.73487e-18
-0.0216079
-0.0450009
-0.0703264
-0.0977441
-0.127427
-0.159561
-0.194349
-0.23201
-0.272782
0.229677
0.225261
0.22048
0.215305
0.209701
0.203634
0.197066
0.189955
0.182257
0.173923
0.1649
0.155131
0.144555
0.133105
0.12071
0.10729
0.0927607
0.0770315
0.0600026
0.0415668
0.0216079
9.88856e-18
-0.023393
-0.0487185
-0.0761361
-0.105819
-0.137953
-0.172741
-0.210402
-0.251173
0.253071
0.248655
0.243874
0.238698
0.233094
0.227027
0.220459
0.213349
0.20565
0.197316
0.188293
0.178524
0.167948
0.156498
0.144103
0.130683
0.116154
0.100425
0.0833957
0.0649598
0.0450009
0.023393
-4.46084e-19
-0.0253255
-0.0527431
-0.0824255
-0.11456
-0.149348
-0.187009
-0.227779
0.278397
0.273981
0.2692
0.264024
0.25842
0.252353
0.245785
0.238675
0.230976
0.222642
0.213619
0.20385
0.193274
0.181824
0.169428
0.156008
0.141479
0.12575
0.108721
0.0902854
0.0703264
0.0487185
0.0253255
1.06333e-17
-0.0274176
-0.0570999
-0.0892339
-0.124022
-0.161683
-0.202453
0.305815
0.301399
0.296618
0.291442
0.285838
0.279771
0.273203
0.266093
0.258394
0.25006
0.241037
0.231268
0.220692
0.209242
0.196846
0.183426
0.168897
0.153168
0.136139
0.117703
0.0977441
0.0761361
0.0527431
0.0274176
0
-0.0296823
-0.0618163
-0.0966042
-0.134265
-0.175035
0.335498
0.331082
0.326301
0.321125
0.315521
0.309454
0.302886
0.295776
0.288077
0.279743
0.270719
0.260951
0.250375
0.238925
0.226529
0.213109
0.19858
0.18285
0.165821
0.147386
0.127427
0.105819
0.0824255
0.0570999
0.0296823
-2.39523e-17
-0.0321339
-0.0669218
-0.104582
-0.145353
0.367633
0.363217
0.358436
0.35326
0.347656
0.341589
0.335021
0.327911
0.320212
0.311878
0.302854
0.293085
0.282509
0.27106
0.258664
0.245243
0.230714
0.214985
0.197956
0.17952
0.159561
0.137953
0.11456
0.0892339
0.0618163
0.0321339
-1.31012e-17
-0.0347878
-0.0724483
-0.113218
0.402423
0.398007
0.393226
0.388049
0.382446
0.376379
0.369811
0.3627
0.355001
0.346667
0.337643
0.327874
0.317298
0.305848
0.293452
0.280032
0.265503
0.249773
0.232744
0.214308
0.194349
0.172741
0.149348
0.124022
0.0966042
0.0669218
0.0347878
-2.1128e-17
-0.0376604
-0.0784303
0.440086
0.435669
0.430888
0.425712
0.420108
0.414042
0.407473
0.400362
0.392664
0.384329
0.375306
0.365537
0.354961
0.343511
0.331114
0.317694
0.303165
0.287435
0.270406
0.25197
0.23201
0.210402
0.187009
0.161683
0.134265
0.104582
0.0724483
0.0376604
-1.46477e-17
-0.0407698
0.480859
0.476443
0.471662
0.466486
0.460882
0.454815
0.448246
0.441135
0.433437
0.425102
0.416078
0.406309
0.395733
0.384283
0.371887
0.358466
0.343937
0.328207
0.311177
0.292741
0.272782
0.251173
0.227779
0.202453
0.175035
0.145353
0.113218
0.0784303
0.0407698
-3.24049e-17
-8.66967e-20
-0.00447136
-0.0093122
-0.0145531
-0.020227
-0.0263698
-0.0330202
-0.0402201
-0.048015
-0.0564539
-0.0655902
-0.0754814
-0.08619
-0.0977833
-0.110335
-0.123923
-0.138634
-0.154561
-0.171804
-0.190471
-0.21068
-0.23256
-0.256247
-0.28189
-0.309653
-0.339708
-0.372247
-0.407473
-0.445608
-0.486894
0.00447136
-3.22832e-19
-0.00484084
-0.0100817
-0.0157556
-0.0218984
-0.0285488
-0.0357487
-0.0435436
-0.0519826
-0.0611188
-0.0710101
-0.0817186
-0.093312
-0.105863
-0.119452
-0.134163
-0.15009
-0.167332
-0.185999
-0.206209
-0.228088
-0.251775
-0.277419
-0.305181
-0.335237
-0.367775
-0.403001
-0.441137
-0.482422
0.0093122
0.00484084
4.92e-19
-0.00524086
-0.0109148
-0.0170576
-0.023708
-0.0309079
-0.0387027
-0.0471417
-0.056278
-0.0661692
-0.0768778
-0.0884711
-0.101022
-0.114611
-0.129322
-0.145249
-0.162491
-0.181159
-0.201368
-0.223247
-0.246934
-0.272578
-0.30034
-0.330396
-0.362934
-0.39816
-0.436296
-0.477581
0.0145531
0.0100817
0.00524086
2.63718e-19
-0.00567393
-0.0118167
-0.0184671
-0.025667
-0.0334619
-0.0419008
-0.0510371
-0.0609284
-0.0716369
-0.0832303
-0.0957816
-0.10937
-0.124081
-0.140008
-0.15725
-0.175918
-0.196127
-0.218006
-0.241693
-0.267337
-0.295099
-0.325155
-0.357693
-0.392919
-0.431055
-0.47234
0.020227
0.0157556
0.0109148
0.00567393
-5.43058e-19
-0.00614279
-0.0127932
-0.0199931
-0.027788
-0.0362269
-0.0453632
-0.0552544
-0.065963
-0.0775563
-0.0901076
-0.103696
-0.118407
-0.134334
-0.151576
-0.170244
-0.190453
-0.212332
-0.236019
-0.261663
-0.289425
-0.319481
-0.352019
-0.387245
-0.425381
-0.466665
0.0263698
0.0218984
0.0170576
0.0118167
0.00614279
2.33093e-19
-0.00665038
-0.0138503
-0.0216452
-0.0300841
-0.0392204
-0.0491116
-0.0598202
-0.0714135
-0.0839648
-0.0975532
-0.112264
-0.128191
-0.145434
-0.164101
-0.18431
-0.20619
-0.229876
-0.25552
-0.283282
-0.313338
-0.345876
-0.381102
-0.419238
-0.460522
0.0330202
0.0285488
0.023708
0.0184671
0.0127932
0.00665038
1.33473e-19
-0.00719992
-0.0149948
-0.0234337
-0.03257
-0.0424613
-0.0531698
-0.0647631
-0.0773145
-0.0909028
-0.105614
-0.121541
-0.138783
-0.15745
-0.17766
-0.199539
-0.223226
-0.24887
-0.276632
-0.306687
-0.339226
-0.374452
-0.412587
-0.453872
0.0402201
0.0357487
0.0309079
0.025667
0.0199931
0.0138503
0.00719992
4.01493e-19
-0.00779486
-0.0162338
-0.0253701
-0.0352613
-0.0459699
-0.0575632
-0.0701145
-0.0837029
-0.0984141
-0.114341
-0.131583
-0.150251
-0.17046
-0.192339
-0.216026
-0.24167
-0.269432
-0.299487
-0.332026
-0.367251
-0.405387
-0.446671
0.048015
0.0435436
0.0387027
0.0334619
0.027788
0.0216452
0.0149948
0.00779486
-1.97309e-19
-0.00843896
-0.0175752
-0.0274665
-0.038175
-0.0497684
-0.0623197
-0.075908
-0.0906192
-0.106546
-0.123788
-0.142456
-0.162665
-0.184544
-0.208231
-0.233875
-0.261637
-0.291692
-0.324231
-0.359456
-0.397592
-0.438876
0.0564539
0.0519826
0.0471417
0.0419008
0.0362269
0.0300841
0.0234337
0.0162338
0.00843896
-3.22645e-18
-0.00913628
-0.0190275
-0.029736
-0.0413294
-0.0538807
-0.0674691
-0.0821802
-0.0981069
-0.115349
-0.134017
-0.154226
-0.176105
-0.199792
-0.225436
-0.253198
-0.283253
-0.315791
-0.351017
-0.389152
-0.430437
0.0655902
0.0611188
0.056278
0.0510371
0.0453632
0.0392204
0.03257
0.0253701
0.0175752
0.00913628
-6.58204e-19
-0.00989122
-0.0205997
-0.0321931
-0.0447444
-0.0583328
-0.0730439
-0.0889706
-0.106213
-0.12488
-0.14509
-0.166969
-0.190656
-0.216299
-0.244061
-0.274117
-0.306655
-0.341881
-0.380016
-0.4213
0.0754814
0.0710101
0.0661692
0.0609284
0.0552544
0.0491116
0.0424613
0.0352613
0.0274665
0.0190275
0.00989122
8.82693e-19
-0.0107085
-0.0223019
-0.0348532
-0.0484416
-0.0631527
-0.0790793
-0.0963219
-0.114989
-0.135199
-0.157078
-0.180764
-0.206408
-0.23417
-0.264225
-0.296763
-0.331989
-0.370124
-0.411408
0.08619
0.0817186
0.0768778
0.0716369
0.065963
0.0598202
0.0531698
0.0459699
0.038175
0.029736
0.0205997
0.0107085
3.80865e-18
-0.0115934
-0.0241447
-0.037733
-0.0524442
-0.0683708
-0.0856134
-0.104281
-0.12449
-0.146369
-0.170056
-0.195699
-0.223461
-0.253517
-0.286055
-0.32128
-0.359415
-0.400699
0.0977833
0.093312
0.0884711
0.0832303
0.0775563
0.0714135
0.0647631
0.0575632
0.0497684
0.0413294
0.0321931
0.0223019
0.0115934
-4.23041e-18
-0.0125513
-0.0261397
-0.0408508
-0.0567774
-0.07402
-0.0926872
-0.112897
-0.134776
-0.158462
-0.184106
-0.211868
-0.241923
-0.274461
-0.309687
-0.347821
-0.389105
0.110335
0.105863
0.101022
0.0957816
0.0901076
0.0839648
0.0773145
0.0701145
0.0623197
0.0538807
0.0447444
0.0348532
0.0241447
0.0125513
-8.94447e-18
-0.0135884
-0.0282995
-0.0442261
-0.0614687
-0.0801358
-0.100345
-0.122224
-0.145911
-0.171555
-0.199317
-0.229372
-0.26191
-0.297135
-0.33527
-0.376554
0.123923
0.119452
0.114611
0.10937
0.103696
0.0975532
0.0909028
0.0837029
0.075908
0.0674691
0.0583328
0.0484416
0.037733
0.0261397
0.0135884
1.40854e-18
-0.0147111
-0.0306378
-0.0478803
-0.0665474
-0.0867569
-0.108636
-0.132323
-0.157966
-0.185728
-0.215783
-0.248321
-0.283546
-0.321681
-0.362965
0.138634
0.134163
0.129322
0.124081
0.118407
0.112264
0.105614
0.0984141
0.0906192
0.0821802
0.0730439
0.0631527
0.0524442
0.0408508
0.0282995
0.0147111
-2.32143e-18
-0.0159266
-0.0331692
-0.0518363
-0.0720457
-0.0939248
-0.117611
-0.143255
-0.171017
-0.201072
-0.23361
-0.268835
-0.306969
-0.348253
0.154561
0.15009
0.145249
0.140008
0.134334
0.128191
0.121541
0.114341
0.106546
0.0981069
0.0889706
0.0790793
0.0683708
0.0567774
0.0442261
0.0306378
0.0159266
4.24645e-19
-0.0172425
-0.0359097
-0.0561191
-0.0779982
-0.101685
-0.127328
-0.15509
-0.185145
-0.217683
-0.252908
-0.291042
-0.332326
0.171804
0.167332
0.162491
0.15725
0.151576
0.145434
0.138783
0.131583
0.123788
0.115349
0.106213
0.0963219
0.0856134
0.07402
0.0614687
0.0478803
0.0331692
0.0172425
3.51184e-18
-0.0186671
-0.0388766
-0.0607556
-0.0844422
-0.110086
-0.137847
-0.167902
-0.20044
-0.235665
-0.273799
-0.315083
0.190471
0.185999
0.181159
0.175918
0.170244
0.164101
0.15745
0.150251
0.142456
0.134017
0.12488
0.114989
0.104281
0.0926872
0.0801358
0.0665474
0.0518363
0.0359097
0.0186671
-1.45123e-18
-0.0202094
-0.0420885
-0.0657751
-0.0914184
-0.11918
-0.149235
-0.181773
-0.216998
-0.255132
-0.296415
0.21068
0.206209
0.201368
0.196127
0.190453
0.18431
0.17766
0.17046
0.162665
0.154226
0.14509
0.135199
0.12449
0.112897
0.100345
0.0867569
0.0720457
0.0561191
0.0388766
0.0202094
6.20448e-18
-0.0218791
-0.0455656
-0.071209
-0.0989707
-0.129026
-0.161563
-0.196788
-0.234922
-0.276205
0.23256
0.228088
0.223247
0.218006
0.212332
0.20619
0.199539
0.192339
0.184544
0.176105
0.166969
0.157078
0.146369
0.134776
0.122224
0.108636
0.0939248
0.0779982
0.0607556
0.0420885
0.0218791
9.89226e-18
-0.0236866
-0.0493299
-0.0770916
-0.107147
-0.139684
-0.174909
-0.213042
-0.254325
0.256247
0.251775
0.246934
0.241693
0.236019
0.229876
0.223226
0.216026
0.208231
0.199792
0.190656
0.180764
0.170056
0.158462
0.145911
0.132323
0.117611
0.101685
0.0844422
0.0657751
0.0455656
0.0236866
-5.43868e-18
-0.0256433
-0.053405
-0.0834599
-0.115997
-0.151222
-0.189355
-0.230638
0.28189
0.277419
0.272578
0.267337
0.261663
0.25552
0.24887
0.24167
0.233875
0.225436
0.216299
0.206408
0.195699
0.184106
0.171555
0.157966
0.143255
0.127328
0.110086
0.0914184
0.071209
0.0493299
0.0256433
1.05634e-17
-0.0277617
-0.0578165
-0.0903537
-0.125578
-0.163712
-0.204994
0.309653
0.305181
0.30034
0.295099
0.289425
0.283282
0.276632
0.269432
0.261637
0.253198
0.244061
0.23417
0.223461
0.211868
0.199317
0.185728
0.171017
0.15509
0.137847
0.11918
0.0989707
0.0770916
0.053405
0.0277617
1.90709e-17
-0.0300548
-0.062592
-0.0978165
-0.13595
-0.177232
0.339708
0.335237
0.330396
0.325155
0.319481
0.313338
0.306687
0.299487
0.291692
0.283253
0.274117
0.264225
0.253517
0.241923
0.229372
0.215783
0.201072
0.185145
0.167902
0.149235
0.129026
0.107147
0.0834599
0.0578165
0.0300548
-7.28174e-18
-0.0325372
-0.0677616
-0.105895
-0.147177
0.372247
0.367775
0.362934
0.357693
0.352019
0.345876
0.339226
0.332026
0.324231
0.315791
0.306655
0.296763
0.286055
0.274461
0.26191
0.248321
0.23361
0.217683
0.20044
0.181773
0.161563
0.139684
0.115997
0.0903537
0.062592
0.0325372
-9.24401e-18
-0.0352243
-0.0733575
-0.114639
0.407473
0.403001
0.39816
0.392919
0.387245
0.381102
0.374452
0.367251
0.359456
0.351017
0.341881
0.331989
0.32128
0.309687
0.297135
0.283546
0.268835
0.252908
0.235665
0.216998
0.196788
0.174909
0.151222
0.125578
0.0978165
0.0677616
0.0352243
1.2757e-17
-0.0381331
-0.0794146
0.445608
0.441137
0.436296
0.431055
0.425381
0.419238
0.412587
0.405387
0.397592
0.389152
0.380016
0.370124
0.359415
0.347821
0.33527
0.321681
0.306969
0.291042
0.273799
0.255132
0.234922
0.213042
0.189355
0.163712
0.13595
0.105895
0.0733575
0.0381331
-2.32161e-17
-0.0412814
0.486894
0.482422
0.477581
0.47234
0.466665
0.460522
0.453872
0.446671
0.438876
0.430437
0.4213
0.411408
0.400699
0.389105
0.376554
0.362965
0.348253
0.332326
0.315083
0.296415
0.276205
0.254325
0.230638
0.204994
0.177232
0.147177
0.114639
0.0794146
0.0412814
1.68295e-17
1.66341e-19
-0.00452678
-0.00942762
-0.0147334
-0.0204777
-0.0266966
-0.0334294
-0.0407186
-0.04861
-0.0571536
-0.0664031
-0.0764169
-0.0872582
-0.0989953
-0.111702
-0.125459
-0.140352
-0.156477
-0.173933
-0.192831
-0.213292
-0.235442
-0.259422
-0.285384
-0.31349
-0.343919
-0.37686
-0.412523
-0.451131
-0.492928
0.00452678
1.74986e-19
-0.00490084
-0.0102067
-0.0159509
-0.0221698
-0.0289026
-0.0361918
-0.0440833
-0.0526268
-0.0618763
-0.0718902
-0.0827314
-0.0944685
-0.107175
-0.120932
-0.135826
-0.15195
-0.169406
-0.188305
-0.208765
-0.230915
-0.254896
-0.280857
-0.308964
-0.339392
-0.372333
-0.407996
-0.446604
-0.488401
0.00942762
0.00490084
4.80027e-19
-0.00530582
-0.0110501
-0.017269
-0.0240018
-0.031291
-0.0391824
-0.047726
-0.0569755
-0.0669893
-0.0778306
-0.0895676
-0.102275
-0.116031
-0.130925
-0.147049
-0.164505
-0.183404
-0.203864
-0.226014
-0.249995
-0.275956
-0.304063
-0.334491
-0.367432
-0.403095
-0.441703
-0.4835
0.0147334
0.0102067
0.00530582
3.08761e-19
-0.00574425
-0.0119632
-0.018696
-0.0259851
-0.0338766
-0.0424202
-0.0516697
-0.0616835
-0.0725248
-0.0842618
-0.0969687
-0.110725
-0.125619
-0.141743
-0.159199
-0.178098
-0.198558
-0.220708
-0.244689
-0.27065
-0.298757
-0.329185
-0.362126
-0.397789
-0.436397
-0.478194
0.0204777
0.0159509
0.0110501
0.00574425
-3.53228e-19
-0.00621892
-0.0129517
-0.0202409
-0.0281324
-0.0366759
-0.0459254
-0.0559392
-0.0667805
-0.0785176
-0.0912244
-0.104981
-0.119875
-0.135999
-0.153455
-0.172354
-0.192814
-0.214964
-0.238945
-0.264906
-0.293012
-0.32344
-0.356382
-0.392045
-0.430653
-0.472449
0.0266966
0.0221698
0.017269
0.0119632
0.00621892
-9.8549e-19
-0.00673281
-0.014022
-0.0219134
-0.030457
-0.0397065
-0.0497203
-0.0605616
-0.0722986
-0.0850055
-0.0987623
-0.113656
-0.12978
-0.147236
-0.166135
-0.186595
-0.208745
-0.232726
-0.258687
-0.286793
-0.317221
-0.350163
-0.385826
-0.424434
-0.46623
0.0334294
0.0289026
0.0240018
0.018696
0.0129517
0.00673281
1.30224e-18
-0.00728915
-0.0151806
-0.0237242
-0.0329737
-0.0429875
-0.0538288
-0.0655658
-0.0782727
-0.0920295
-0.106923
-0.123047
-0.140503
-0.159402
-0.179862
-0.202012
-0.225993
-0.251954
-0.28006
-0.310488
-0.34343
-0.379092
-0.4177
-0.459497
0.0407186
0.0361918
0.031291
0.0259851
0.0202409
0.014022
0.00728915
-1.11921e-18
-0.00789147
-0.016435
-0.0256845
-0.0356984
-0.0465396
-0.0582767
-0.0709835
-0.0847403
-0.0996338
-0.115758
-0.133214
-0.152113
-0.172573
-0.194723
-0.218703
-0.244665
-0.272771
-0.303199
-0.336141
-0.371803
-0.410411
-0.452207
0.04861
0.0440833
0.0391824
0.0338766
0.0281324
0.0219134
0.0151806
0.00789147
2.88761e-19
-0.00854356
-0.0177931
-0.0278069
-0.0386481
-0.0503852
-0.063092
-0.0768488
-0.0917423
-0.107866
-0.125323
-0.144221
-0.164681
-0.186832
-0.210812
-0.236773
-0.26488
-0.295308
-0.328249
-0.363911
-0.402519
-0.444315
0.0571536
0.0526268
0.047726
0.0424202
0.0366759
0.030457
0.0237242
0.016435
0.00854356
2.89942e-18
-0.00924952
-0.0192633
-0.0301046
-0.0418416
-0.0545485
-0.0683053
-0.0831987
-0.0993228
-0.116779
-0.135678
-0.156138
-0.178288
-0.202268
-0.22823
-0.256336
-0.286764
-0.319705
-0.355368
-0.393975
-0.435772
0.0664031
0.0618763
0.0569755
0.0516697
0.0459254
0.0397065
0.0329737
0.0256845
0.0177931
0.00924952
2.14062e-18
-0.0100138
-0.0208551
-0.0325921
-0.045299
-0.0590558
-0.0739492
-0.0900733
-0.10753
-0.126428
-0.146888
-0.169038
-0.193019
-0.21898
-0.247086
-0.277514
-0.310456
-0.346118
-0.384725
-0.426522
0.0764169
0.0718902
0.0669893
0.0616835
0.0559392
0.0497203
0.0429875
0.0356984
0.0278069
0.0192633
0.0100138
1.35333e-18
-0.0108412
-0.0225783
-0.0352852
-0.0490419
-0.0639354
-0.0800594
-0.0975157
-0.116414
-0.136874
-0.159025
-0.183005
-0.208966
-0.237072
-0.2675
-0.300442
-0.336104
-0.374711
-0.416507
0.0872582
0.0827314
0.0778306
0.0725248
0.0667805
0.0605616
0.0538288
0.0465396
0.0386481
0.0301046
0.0208551
0.0108412
-2.76043e-18
-0.011737
-0.0244439
-0.0382007
-0.0530942
-0.0692182
-0.0866744
-0.105573
-0.126033
-0.148183
-0.172164
-0.198125
-0.226231
-0.256659
-0.2896
-0.325262
-0.36387
-0.405666
0.0989953
0.0944685
0.0895676
0.0842618
0.0785176
0.0722986
0.0655658
0.0582767
0.0503852
0.0418416
0.0325921
0.0225783
0.011737
2.65992e-18
-0.0127069
-0.0264636
-0.0413571
-0.0574811
-0.0749374
-0.0938359
-0.114296
-0.136446
-0.160426
-0.186388
-0.214494
-0.244922
-0.277863
-0.313525
-0.352132
-0.393928
0.111702
0.107175
0.102275
0.0969687
0.0912244
0.0850055
0.0782727
0.0709835
0.063092
0.0545485
0.045299
0.0352852
0.0244439
0.0127069
3.49072e-18
-0.0137568
-0.0286502
-0.0447743
-0.0622305
-0.081129
-0.101589
-0.123739
-0.147719
-0.173681
-0.201787
-0.232215
-0.265156
-0.300818
-0.339425
-0.381221
0.125459
0.120932
0.116031
0.110725
0.104981
0.0987623
0.0920295
0.0847403
0.0768488
0.0683053
0.0590558
0.0490419
0.0382007
0.0264636
0.0137568
-6.87133e-19
-0.0148935
-0.0310175
-0.0484737
-0.0673722
-0.0878321
-0.109982
-0.133963
-0.159924
-0.18803
-0.218458
-0.251399
-0.287061
-0.325668
-0.367463
0.140352
0.135826
0.130925
0.125619
0.119875
0.113656
0.106923
0.0996338
0.0917423
0.0831987
0.0739492
0.0639354
0.0530942
0.0413571
0.0286502
0.0148935
-7.39085e-18
-0.016124
-0.0335803
-0.0524788
-0.0729387
-0.0950889
-0.119069
-0.14503
-0.173136
-0.203564
-0.236505
-0.272167
-0.310774
-0.352569
0.156477
0.15195
0.147049
0.141743
0.135999
0.12978
0.123047
0.115758
0.107866
0.0993228
0.0900733
0.0800594
0.0692182
0.0574811
0.0447743
0.0310175
0.016124
-2.07155e-19
-0.0174562
-0.0363547
-0.0568146
-0.0789649
-0.102945
-0.128906
-0.157012
-0.18744
-0.220381
-0.256042
-0.294649
-0.336445
0.173933
0.169406
0.164505
0.159199
0.153455
0.147236
0.140503
0.133214
0.125323
0.116779
0.10753
0.0975157
0.0866744
0.0749374
0.0622305
0.0484737
0.0335803
0.0174562
7.39376e-18
-0.0188985
-0.0393584
-0.0615086
-0.0854888
-0.11145
-0.139556
-0.169983
-0.202924
-0.238586
-0.277193
-0.318988
0.192831
0.188305
0.183404
0.178098
0.172354
0.166135
0.159402
0.152113
0.144221
0.135678
0.126428
0.116414
0.105573
0.0938359
0.081129
0.0673722
0.0524788
0.0363547
0.0188985
3.93308e-18
-0.0204599
-0.0426101
-0.0665903
-0.0925515
-0.120657
-0.151085
-0.184026
-0.219687
-0.258294
-0.300089
0.213292
0.208765
0.203864
0.198558
0.192814
0.186595
0.179862
0.172573
0.164681
0.156138
0.146888
0.136874
0.126033
0.114296
0.101589
0.0878321
0.0729387
0.0568146
0.0393584
0.0204599
4.12738e-18
-0.0221502
-0.0461304
-0.0720916
-0.100197
-0.130625
-0.163566
-0.199227
-0.237833
-0.279628
0.235442
0.230915
0.226014
0.220708
0.214964
0.208745
0.202012
0.194723
0.186832
0.178288
0.169038
0.159025
0.148183
0.136446
0.123739
0.109982
0.0950889
0.0789649
0.0615086
0.0426101
0.0221502
5.30834e-18
-0.0239801
-0.0499413
-0.0780471
-0.108474
-0.141415
-0.177076
-0.215683
-0.257477
0.259422
0.254896
0.249995
0.244689
0.238945
0.232726
0.225993
0.218703
0.210812
0.202268
0.193019
0.183005
0.172164
0.160426
0.147719
0.133963
0.119069
0.102945
0.0854888
0.0665903
0.0461304
0.0239801
3.6083e-18
-0.0259612
-0.0540669
-0.0844943
-0.117435
-0.153096
-0.191702
-0.233496
0.285384
0.280857
0.275956
0.27065
0.264906
0.258687
0.251954
0.244665
0.236773
0.22823
0.21898
0.208966
0.198125
0.186388
0.173681
0.159924
0.14503
0.128906
0.11145
0.0925515
0.0720916
0.0499413
0.0259612
1.19929e-17
-0.0281057
-0.058533
-0.0914736
-0.127135
-0.165741
-0.207535
0.31349
0.308964
0.304063
0.298757
0.293012
0.286793
0.28006
0.272771
0.26488
0.256336
0.247086
0.237072
0.226231
0.214494
0.201787
0.18803
0.173136
0.157012
0.139556
0.120657
0.100197
0.0780471
0.0540669
0.0281057
9.3034e-18
-0.0304273
-0.0633678
-0.0990288
-0.137635
-0.179428
0.343919
0.339392
0.334491
0.329185
0.32344
0.317221
0.310488
0.303199
0.295308
0.286764
0.277514
0.2675
0.256659
0.244922
0.232215
0.218458
0.203564
0.18744
0.169983
0.151085
0.130625
0.108474
0.0844943
0.058533
0.0304273
1.12489e-17
-0.0329405
-0.0686014
-0.107207
-0.149001
0.37686
0.372333
0.367432
0.362126
0.356382
0.350163
0.34343
0.336141
0.328249
0.319705
0.310456
0.300442
0.2896
0.277863
0.265156
0.251399
0.236505
0.220381
0.202924
0.184026
0.163566
0.141415
0.117435
0.0914736
0.0633678
0.0329405
-1.08759e-17
-0.0356609
-0.0742667
-0.11606
0.412523
0.407996
0.403095
0.397789
0.392045
0.385826
0.379092
0.371803
0.363911
0.355368
0.346118
0.336104
0.325262
0.313525
0.300818
0.287061
0.272167
0.256042
0.238586
0.219687
0.199227
0.177076
0.153096
0.127135
0.0990288
0.0686014
0.0356609
-1.43614e-18
-0.0386057
-0.0803988
0.451131
0.446604
0.441703
0.436397
0.430653
0.424434
0.4177
0.410411
0.402519
0.393975
0.384725
0.374711
0.36387
0.352132
0.339425
0.325668
0.310774
0.294649
0.277193
0.258294
0.237833
0.215683
0.191702
0.165741
0.137635
0.107207
0.0742667
0.0386057
-5.22718e-18
-0.0417931
0.492928
0.488401
0.4835
0.478194
0.472449
0.46623
0.459497
0.452207
0.444315
0.435772
0.426522
0.416507
0.405666
0.393928
0.381221
0.367463
0.352569
0.336445
0.318988
0.300089
0.279628
0.257477
0.233496
0.207535
0.179428
0.149001
0.11606
0.0803988
0.0417931
-1.28156e-17
-3.98585e-20
-0.00458219
-0.00954303
-0.0149138
-0.0207284
-0.0270234
-0.0338387
-0.0412171
-0.0492051
-0.0578533
-0.067216
-0.0773525
-0.0883264
-0.100207
-0.11307
-0.126995
-0.142071
-0.158392
-0.176062
-0.195192
-0.215903
-0.238324
-0.262598
-0.288878
-0.317328
-0.348129
-0.381474
-0.417573
-0.456654
-0.498963
0.00458219
0
-0.00496084
-0.0103316
-0.0161462
-0.0224412
-0.0292565
-0.0366349
-0.0446229
-0.0532711
-0.0626339
-0.0727703
-0.0837442
-0.095625
-0.108487
-0.122413
-0.137488
-0.15381
-0.17148
-0.19061
-0.21132
-0.233742
-0.258016
-0.284296
-0.312746
-0.343547
-0.376892
-0.412991
-0.452072
-0.49438
0.00954303
0.00496084
4.68486e-19
-0.00537077
-0.0111853
-0.0174804
-0.0242956
-0.031674
-0.0396621
-0.0483103
-0.057673
-0.0678094
-0.0787834
-0.0906641
-0.103527
-0.117452
-0.132528
-0.148849
-0.166519
-0.185649
-0.20636
-0.228781
-0.253055
-0.279335
-0.307785
-0.338586
-0.371931
-0.40803
-0.447111
-0.489419
0.0149138
0.0103316
0.00537077
-7.53343e-19
-0.00581458
-0.0121096
-0.0189249
-0.0263033
-0.0342913
-0.0429395
-0.0523022
-0.0624386
-0.0734126
-0.0852934
-0.0981558
-0.112081
-0.127157
-0.143478
-0.161148
-0.180278
-0.200989
-0.22341
-0.247684
-0.273964
-0.302414
-0.333215
-0.36656
-0.402659
-0.44174
-0.484048
0.0207284
0.0161462
0.0111853
0.00581458
6.03287e-19
-0.00629505
-0.0131103
-0.0204887
-0.0284768
-0.0371249
-0.0464877
-0.0566241
-0.067598
-0.0794788
-0.0923412
-0.106266
-0.121342
-0.137664
-0.155334
-0.174464
-0.195174
-0.217596
-0.24187
-0.268149
-0.296599
-0.3274
-0.360745
-0.396844
-0.435925
-0.478233
0.0270234
0.0224412
0.0174804
0.0121096
0.00629505
4.43906e-19
-0.00681523
-0.0141936
-0.0221817
-0.0308298
-0.0401926
-0.050329
-0.061303
-0.0731837
-0.0860461
-0.0999714
-0.115047
-0.131369
-0.149039
-0.168169
-0.188879
-0.211301
-0.235575
-0.261854
-0.290304
-0.321105
-0.35445
-0.390549
-0.42963
-0.471938
0.0338387
0.0292565
0.0242956
0.0189249
0.0131103
0.00681523
7.62561e-19
-0.00737839
-0.0153665
-0.0240146
-0.0333774
-0.0435138
-0.0544877
-0.0663685
-0.0792309
-0.0931561
-0.108232
-0.124553
-0.142223
-0.161353
-0.182064
-0.204485
-0.228759
-0.255039
-0.283489
-0.31429
-0.347634
-0.383733
-0.422814
-0.465122
0.0412171
0.0366349
0.031674
0.0263033
0.0204887
0.0141936
0.00737839
3.11305e-18
-0.00798808
-0.0166362
-0.025999
-0.0361354
-0.0471094
-0.0589901
-0.0718525
-0.0857777
-0.100854
-0.117175
-0.134845
-0.153975
-0.174685
-0.197107
-0.221381
-0.24766
-0.276111
-0.306911
-0.340256
-0.376355
-0.415435
-0.457743
0.0492051
0.0446229
0.0396621
0.0342913
0.0284768
0.0221817
0.0153665
0.00798808
1.50303e-18
-0.00864815