/*--------------------------------*- C++ -*----------------------------------*\
| =========                 |                                                 |
| \\      /  F ield         | OpenFOAM: The Open Source CFD Toolbox           |
|  \\    /   O peration     | Version:  2.2.1                                 |
|   \\  /    A nd           | Web:      www.OpenFOAM.org                      |
|    \\/     M anipulation  |                                                 |
\*---------------------------------------------------------------------------*/
FoamFile
{
    version     2.0;
    format      ascii;
    class       volVectorField;
    object      U;
}
// * * * * * * * * * * * * * * * * * * * * * * * * * * * * * * * * * * * * * //

dimensions      [0 1 -1 0 0 0 0];

internalField   uniform (0 0 -1);

boundaryField
{
    rotor
    {
//type rotatingWallVelocity;
//origin (0 0 0);
//axis (0 0 1);
//omega 1;
      type            fixedValue;
//        value           uniform (0 0 1);

 value           nonuniform List<vector> 
4560
(
(1.208692521387743639e-19 8.172885040642865334e-03 -1.029480959191308997e-03)
(-8.500934363342449798e-03 1.663547452685924452e-02 3.717820335482624472e-04)
(-1.760553870947242916e-02 2.567537004828912561e-02 3.479278690786569150e-03)
(-2.725574864288426991e-02 3.522936379609695884e-02 8.651260042425834573e-03)
(-3.735096808413737590e-02 4.519075007959129364e-02 1.626096853481640014e-02)
(-4.773745373021548444e-02 5.539975140533184850e-02 2.667229712612056991e-02)
(-5.819812729228065334e-02 6.563349506440416259e-02 4.020281442354306511e-02)
(-6.844655062432911108e-02 7.559999402840961169e-02 5.707526898733072951e-02)
(-7.812377427534927810e-02 8.493639963585311592e-02 7.735474970439951137e-02)
(-8.680608955386277803e-02 9.321718278610324759e-02 1.008795696871103709e-01)
(-9.402602962466760639e-02 9.997544659738137607e-02 1.271959213464152472e-01)
(-9.930856353813476145e-02 1.047414549896170249e-01 1.555126469093784380e-01)
(-1.022264719009246953e-01 1.070974493077760797e-01 1.846998287424508611e-01)
(-1.024691609224137878e-01 1.067473006330274948e-01 2.133570835351983053e-01)
(-9.991584338309368596e-02 1.035883718660658981e-01 2.399664751766685811e-01)
(-9.469324213051014127e-02 9.777114623968907736e-02 2.631201600203409985e-01)
(-8.720400206942964527e-02 8.971783194540665363e-02 2.817846758412510533e-01)
(-7.809143919961471225e-02 8.009414021743807566e-02 2.955225166521865399e-01)
(-6.816245546549000445e-02 6.972052375150761261e-02 3.045700620424706684e-01)
(-5.826173343354469625e-02 5.945081201077605237e-02 3.097355207108910546e-01)
(-4.915547082361627906e-02 5.005271662251319781e-02 3.121260275058228562e-01)
(-4.145771142393916975e-02 4.213489824507769821e-02 3.128242152417782251e-01)
(-3.561742253680488107e-02 3.613863376545270456e-02 3.126537831988838723e-01)
(-3.195929839382231907e-02 3.237831060192663396e-02 3.121116444016907021e-01)
(-3.073258522545852661e-02 3.109352279676657824e-02 3.114376588975929505e-01)
(-3.214541094112827180e-02 3.248356141076848974e-02 3.107297605837323062e-01)
(-3.636882862515895126e-02 3.671129495021512729e-02 3.100305265878356420e-01)
(-4.352017116287064391e-02 4.388660572139689575e-02 3.093679025231685920e-01)
(-5.364061496298082321e-02 5.404391955716916079e-02 3.087662698134951422e-01)
(-6.667572221500066287e-02 6.712280477796118972e-02 3.082463470663687199e-01)
(8.500934363342449798e-03 1.663547452685924452e-02 3.717820335482624472e-04)
(1.030605457500798287e-19 2.501911207500897086e-02 1.754658734681890930e-03)
(-9.129688118290865337e-03 3.395095081996186287e-02 4.828533527403144898e-03)
(-1.883659927919779931e-02 4.336311941986214363e-02 9.948930712413817101e-03)
(-2.902726343020193070e-02 5.314409225789458457e-02 1.748642213541529156e-02)
(-3.955593421775793067e-02 6.312950918246054699e-02 2.780276825826427656e-02)
(-5.021439509941470758e-02 7.309300211447498918e-02 4.121511176881881289e-02)
(-6.072392498527830890e-02 8.273935947978702798e-02 5.794640631156883215e-02)
(-7.073286950704563147e-02 9.170449519515287695e-02 7.806464816923419647e-02)
(-7.982312817475741007e-02 9.956376323905981318e-02 1.014143322725384599e-01)
(-8.752850767632493201e-02 1.058540274142300980e-01 1.275502090953663792e-01)
(-9.337083383877824161e-02 1.101122560600601707e-01 1.556930381605010627e-01)
(-9.691326165448792274e-02 1.119304891993095352e-01 1.847261849476841133e-01)
(-9.782840808872042548e-02 1.110252033948699590e-01 2.132620207937344081e-01)
(-9.597099967198746695e-02 1.073091975118016517e-01 2.397919495014545210e-01)
(-9.144033264396676797e-02 1.009464517787470594e-01 2.629128252365676710e-01)
(-8.460509220784359630e-02 9.237643603620845911e-02 2.815861012085786874e-01)
(-7.608242290990285817e-02 8.227717831883367416e-02 2.953608361926124415e-01)
(-6.665649948025746674e-02 7.147946255243892155e-02 3.044585607313091136e-01)
(-5.715966111954373652e-02 6.084312854669106374e-02 3.096725487672214450e-01)
(-4.835784780023809348e-02 5.113811937782256761e-02 3.120999455328956618e-01)
(-4.087192996584717436e-02 4.297101640577970227e-02 3.128210056705204023e-01)
(-3.516350525944101496e-02 3.677803112540115743e-02 3.126622577873096609e-01)
(-3.156913190104616851e-02 3.286585335251942380e-02 3.121251649257782423e-01)
(-3.035067095263275713e-02 3.146589343621781359e-02 3.114531459700133342e-01)
(-3.172667890265269686e-02 3.276952533742177182e-02 3.107458574169551513e-01)
(-3.587813181815851377e-02 3.693262252635245990e-02 3.100464647617606206e-01)
(-4.293250450480821934e-02 4.405960771941414000e-02 3.093829807126618481e-01)
(-5.293994823842868708e-02 5.418003660286657003e-02 3.087798793293342614e-01)
(-6.585612800362521113e-02 6.723016792078449766e-02 3.082579550138674906e-01)
(1.760553870947242916e-02 2.567537004828912561e-02 3.479278690786569150e-03)
(9.129688118290865337e-03 3.395095081996186287e-02 4.828533527403144898e-03)
(-1.747567645078811582e-19 4.274256714011200747e-02 7.843493355617514595e-03)
(-9.739116588868144270e-03 5.197759189729801027e-02 1.287500185627116212e-02)
(-2.000249036754360096e-02 6.154001935355905839e-02 2.028920614474111206e-02)
(-3.065337759425007177e-02 7.126141209504861795e-02 3.044418417927807763e-02)
(-4.149340203419536049e-02 8.091165245161004160e-02 4.365446471311107413e-02)
(-5.225365733139826496e-02 9.019378336682284947e-02 6.014320056142041793e-02)
(-6.259152450643835908e-02 9.874336946196472786e-02 7.998149853632616213e-02)
(-7.209586828848112139e-02 1.061381222772514871e-01 1.030214504573790657e-01)
(-8.030392834760720355e-02 1.119197752499212495e-01 1.288297097641285804e-01)
(-8.673555113044686959e-02 1.156335104409161874e-01 1.566438838491221730e-01)
(-9.094483373503203794e-02 1.168824910139455997e-01 1.853670573353144169e-01)
(-9.258712955923029120e-02 1.153968038611692809e-01 2.136331997454861686e-01)
(-9.149218990362086024e-02 1.111037960723553070e-01 2.399497789911935741e-01)
(-8.772563399706238829e-02 1.041839884037945307e-01 2.629244744008013557e-01)
(-8.162232571648320167e-02 9.508948852360582515e-02 2.815183501109107533e-01)
(-7.376480403287410947e-02 8.450984869202453342e-02 2.952697520045373669e-01)
(-6.491075782514907355e-02 7.328582738387910689e-02 3.043798668938658136e-01)
(-5.587876151329863178e-02 6.228080944319400181e-02 3.096217699205722207e-01)
(-4.743085760941566364e-02 5.226637184770700773e-02 3.120769271132142197e-01)
(-4.019494072501442888e-02 4.384694144650521513e-02 3.128177772460143391e-01)
(-3.464503391515858649e-02 3.745352659792387101e-02 3.126701767636799745e-01)
(-3.113220455372069095e-02 3.338568536243571166e-02 3.121383768907454725e-01)
(-2.993163611057801307e-02 3.186676483950728889e-02 3.114686552179457002e-01)
(-3.127425564230174038e-02 3.308042601087408940e-02 3.107622658472863897e-01)
(-3.535247852890745224e-02 3.717549671964479052e-02 3.100629275122096518e-01)
(-4.230426560611950937e-02 4.425075897609818260e-02 3.093987581688413813e-01)
(-5.219097697173378375e-02 5.433140515292139705e-02 3.087942428763290059e-01)
(-6.497850911379993155e-02 6.734992177118870327e-02 3.082703071458463007e-01)
(2.725574864288426991e-02 3.522936379609695884e-02 8.651260042425834573e-03)
(1.883659927919779931e-02 4.336311941986214363e-02 9.948930712413817101e-03)
(9.739116588868144270e-03 5.197759189729801027e-02 1.287500185627116212e-02)
(-2.942697354883801629e-19 6.099571787281191093e-02 1.777349618937501541e-02)
(-1.030470794675610036e-02 7.029715829539930072e-02 2.500377116005003675e-02)
(-2.104864194700386756e-02 7.970993125153033598e-02 3.491816871385583498e-02)
(-3.204467425812076997e-02 8.900113745961914236e-02 4.782701132236016894e-02)
(-4.303552939363496088e-02 9.787280423342986646e-02 6.395248977163114912e-02)
(-5.368962584309198288e-02 1.059617588467173521e-01 8.336936812793566132e-02)
(-6.360505054723311624e-02 1.128491272977324295e-01 1.059384704849672953e-01)
(-7.232443872141694485e-02 1.180837574706724014e-01 1.312429717078687774e-01)
(-7.936757135619762482e-02 1.212201770887409297e-01 1.585423384298050853e-01)
(-8.428064408401303442e-02 1.218740944774766022e-01 1.867674341085597545e-01)
(-8.670117213700394287e-02 1.197903801180870420e-01 2.145836842797377852e-01)
(-8.643233071037910442e-02 1.149109811324030839e-01 2.405239584911893491e-01)
(-8.350500943798834508e-02 1.074306020297715186e-01 2.632139912108274471e-01)
(-7.821260208087882360e-02 9.781408511299860553e-02 2.816211386034025432e-01)
(-7.110120013696014096e-02 8.676094437859366293e-02 2.952709106445605691e-01)
(-6.289561089295714336e-02 7.511624484010254177e-02 3.043449048595640027e-01)
(-5.439518634931540114e-02 6.374813495875471248e-02 3.095879623424294125e-01)
(-4.635649599065166243e-02 5.342788711880023383e-02 3.120585317918015411e-01)
(-3.941324904388685685e-02 4.475743713988755701e-02 3.128147571134864968e-01)
(-3.405280800403168856e-02 3.816308015743956339e-02 3.126773351148683933e-01)
(-3.064211036456783097e-02 3.393780738494964894e-02 3.121509911591857089e-01)
(-2.947119549485647041e-02 3.229747098208440859e-02 3.114839557086830912e-01)
(-3.078527236328238922e-02 3.341806715239049874e-02 3.107788337178499227e-01)
(-3.478909728474807728e-02 3.744193021864660603e-02 3.100798527018924222e-01)
(-4.163319971222450427e-02 4.446230608056979394e-02 3.094151828348535860e-01)
(-5.139101069099746150e-02 5.449988560434478047e-02 3.088093551085258626e-01)
(-6.403932195673839312e-02 6.748314892911562446e-02 3.082834345278239185e-01)
(3.735096808413737590e-02 4.519075007959129364e-02 1.626096853481640014e-02)
(2.902726343020193070e-02 5.314409225789458457e-02 1.748642213541529156e-02)
(2.000249036754360096e-02 6.154001935355905839e-02 2.028920614474111206e-02)
(1.030470794675610036e-02 7.029715829539930072e-02 2.500377116005003675e-02)
(-1.228362735644477508e-19 7.929151626695263300e-02 3.198019354242975787e-02)
(-1.079693122617852649e-02 8.834798796202579518e-02 4.156234953703474844e-02)
(-2.191165834569886589e-02 9.723226399194850877e-02 5.405460730692590587e-02)
(-3.310068316715920889e-02 1.056463935013316202e-01 6.967673704920426814e-02)
(-4.404573255709710866e-02 1.132300905867427709e-01 8.850731816542065089e-02)
(-5.435659241704868944e-02 1.195699786672585613e-01 1.104181835593733563e-01)
(-6.358400975062246385e-02 1.242233883035042397e-01 1.350123587829333560e-01)
(-7.124978865827046037e-02 1.267565298592591982e-01 1.615788999191088149e-01)
(-7.689361960527196782e-02 1.267989446070539317e-01 1.890858576630121690e-01)
(-8.013703272586546189e-02 1.241098769141315977e-01 2.162369281416018918e-01)
(-8.075386320384027317e-02 1.186467693326022366e-01 2.416065413811858409e-01)
(-7.873793251602020926e-02 1.106165589288208434e-01 2.638463386161643554e-01)
(-7.433847238318998241e-02 1.004944475461298919e-01 2.819344752067761140e-01)
(-6.805594973028414318e-02 8.898591738530710338e-02 2.953896867678006966e-01)
(-6.057932163663658220e-02 7.693946474516134837e-02 3.043666823888652173e-01)
(-5.268307916435995691e-02 6.522429697517985459e-02 3.095767434572483934e-01)
(-4.511440330635457796e-02 5.460926325275639731e-02 3.120467113147159521e-01)
(-3.851206377757667582e-02 4.569514214776236594e-02 3.128122323881497024e-01)
(-3.337636530430479476e-02 3.890362108560008886e-02 3.126834991348345083e-01)
(-3.009146930762180219e-02 3.452166218218157001e-02 3.121626568533745760e-01)
(-2.896463079589384551e-02 3.275901303230815964e-02 3.114987482144060404e-01)
(-3.025628279045391653e-02 3.378465290673311749e-02 3.107953480674576774e-01)
(-3.418585012491033581e-02 3.773470049811538524e-02 3.100970592942029480e-01)
(-4.091725424144687651e-02 4.469700438985448054e-02 3.094321587412830477e-01)
(-5.053706984664273899e-02 5.468767068543244764e-02 3.088252004483831303e-01)
(-6.303589205901735659e-02 6.763277820417512576e-02 3.082973176058409481e-01)
(4.773745373021548444e-02 5.539975140533184850e-02 2.667229712612056991e-02)
(3.955593421775793067e-02 6.312950918246054699e-02 2.780276825826427656e-02)
(3.065337759425007177e-02 7.126141209504861795e-02 3.044418417927807763e-02)
(2.104864194700386756e-02 7.970993125153033598e-02 3.491816871385583498e-02)
(1.079693122617852649e-02 8.834798796202579518e-02 4.156234953703474844e-02)
(-0.000000000000000000e+00 9.699855724855438455e-02 5.070936071705667292e-02)
(-1.118221218596255305e-02 1.054270924668349735e-01 6.265516418608207960e-02)
(-2.252197613182465794e-02 1.133376093269252011e-01 7.761598352336473994e-02)
(-3.371686107634553481e-02 1.203743462834257205e-01 9.567389431221740015e-02)
(-4.439133808318686952e-02 1.261314765109728397e-01 1.167135510618232397e-01)
(-5.410723202569843460e-02 1.301772744477799892e-01 1.403631280160274608e-01)
(-6.239146342029827652e-02 1.320909040009966839e-01 1.659468597313606131e-01)
(-6.877963827934856222e-02 1.315174141651529460e-01 1.924818896570569260e-01)
(-7.287743632071831679e-02 1.282311788329105195e-01 2.187231401507346296e-01)
(-7.443140854176698296e-02 1.222031927764489490e-01 2.432944116768997467e-01)
(-7.339321935227575977e-02 1.136517771628092477e-01 2.648894244034644130e-01)
(-6.996422592841496091e-02 1.030577480462239459e-01 2.825050262233340659e-01)
(-6.459603350121562171e-02 9.112916041330432204e-02 2.956526518510023127e-01)
(-5.793187037392644873e-02 7.871494815061855221e-02 3.044591969580393021e-01)
(-5.071651180086483163e-02 6.668009176992734099e-02 3.095947312770035431e-01)
(-4.368386863737238474e-02 5.579263640886922282e-02 3.120436477340414738e-01)
(-3.747517468041718786e-02 4.664955584640353980e-02 3.128105531859174393e-01)
(-3.260396533164313521e-02 3.966955246754787223e-02 3.126883502146116101e-01)
(-2.947247032894536461e-02 3.513582758368614251e-02 3.121729996666271489e-01)
(-2.840644241212462312e-02 3.325224068266625227e-02 3.115126739719445426e-01)
(-2.968381125901833548e-02 3.418225937687499605e-02 3.108115165861204399e-01)
(-3.353974949593108851e-02 3.805635183880769906e-02 3.101143928965807706e-01)
(-4.015363914724224409e-02 4.495749197257266350e-02 3.094496007563608542e-01)
(-4.962701923936752024e-02 5.489798951579433900e-02 3.088417039501621386e-01)
(-6.196419057963121341e-02 6.780045012350394140e-02 3.083119748475353084e-01)
(5.819812729228065334e-02 6.563349506440416259e-02 4.020281442354306511e-02)
(5.021439509941470758e-02 7.309300211447498918e-02 4.121511176881881289e-02)
(4.149340203419536049e-02 8.091165245161004160e-02 4.365446471311107413e-02)
(3.204467425812076997e-02 8.900113745961914236e-02 4.782701132236016894e-02)
(2.191165834569886589e-02 9.723226399194850877e-02 5.405460730692590587e-02)
(1.118221218596255305e-02 1.054270924668349735e-01 6.265516418608207960e-02)
(1.658017924368397593e-19 1.133526224814561389e-01 7.391370182770246045e-02)
(-1.142510316823181632e-02 1.207166891855319946e-01 8.804096343869152741e-02)
(-2.280959871849324097e-02 1.271702244788058545e-01 1.051221486813206651e-01)
(-3.379564715406854769e-02 1.323177287781675815e-01 1.250574707819993303e-01)
(-4.395995246643238930e-02 1.357400736628330828e-01 1.475033738847220943e-01)
(-5.283787762733924837e-02 1.370322209572213401e-01 1.718302526247323103e-01)
(-5.996452091066669515e-02 1.358547205536460578e-01 1.971092469331103825e-01)
(-6.493184638721385959e-02 1.319978646204394424e-01 2.221647815330528297e-01)
(-6.745822165234861834e-02 1.254450102929871858e-01 2.456842963676351410e-01)
(-6.745376294014145124e-02 1.164219261318163168e-01 2.664136260805572420e-01)
(-6.506758811058591108e-02 1.054115267290522961e-01 2.833782654636645693e-01)
(-6.069315733940536250e-02 9.311986501197100363e-02 2.960881563665142546e-01)
(-5.492495787511242344e-02 8.038884583448172028e-02 3.046384601822558769e-01)
(-4.846981329116019366e-02 6.807932350080166117e-02 3.096489493219425349e-01)
(-4.204361341114346007e-02 5.695334606392832982e-02 3.120518920736558566e-01)
(-3.628581942690358580e-02 4.760605229125317028e-02 3.128101090925573535e-01)
(-3.172315616102885927e-02 4.045379389373801593e-02 3.126915472871618085e-01)
(-2.877600005042883421e-02 3.577733493006084869e-02 3.121814599865926354e-01)
(-2.779054429707992005e-02 3.377752602610437777e-02 3.115253014333270731e-01)
(-2.906358975604601824e-02 3.461311332016021175e-02 3.108270067831844230e-01)
(-3.284802875922594040e-02 3.841012130431718102e-02 3.101315905614305812e-01)
(-3.934003947276873414e-02 4.524725449972905045e-02 3.094673462890930038e-01)
(-4.865774126093164176e-02 5.513384765178005326e-02 3.088588048618834958e-01)
(-6.082120494383510406e-02 6.798939595086117560e-02 3.083273716252126206e-01)
(6.844655062432911108e-02 7.559999402840961169e-02 5.707526898733072951e-02)
(6.072392498527830890e-02 8.273935947978702798e-02 5.794640631156883215e-02)
(5.225365733139826496e-02 9.019378336682284947e-02 6.014320056142041793e-02)
(4.303552939363496088e-02 9.787280423342986646e-02 6.395248977163114912e-02)
(3.310068316715920889e-02 1.056463935013316202e-01 6.967673704920426814e-02)
(2.252197613182465794e-02 1.133376093269252011e-01 7.761598352336473994e-02)
(1.142510316823181632e-02 1.207166891855319946e-01 8.804096343869152741e-02)
(1.335196422474285861e-19 1.274976960108633040e-01 1.011551608842004568e-01)
(-1.149158338509734950e-02 1.333406737969269618e-01 1.170459350200697413e-01)
(-2.271311283358189506e-02 1.378630177012302449e-01 1.356306184319615027e-01)
(-3.326036047215383956e-02 1.406610084391166360e-01 1.565991199376506604e-01)
(-4.268178104472627327e-02 1.413467291032364237e-01 1.793730395612079531e-01)
(-5.051495084265519159e-02 1.395985828436040188e-01 2.030966180288859835e-01)
(-5.634288848392390858e-02 1.352210972051320348e-01 2.266677860928618671e-01)
(-5.985616311247979326e-02 1.282081553096509341e-01 2.488596615446964644e-01)
(-6.092327904345169742e-02 1.187892915000198224e-01 2.684812897603799375e-01)
(-5.963722398715435441e-02 1.074443054017863997e-01 2.845983061269455883e-01)
(-5.632947781174345997e-02 9.486988043353616895e-02 2.967239092431503966e-01)
(-5.153697759377747628e-02 8.189707609234361807e-02 3.049191686107473598e-01)
(-4.592104451392934467e-02 6.937564784839903020e-02 3.097465691925478382e-01)
(-4.017306449914588573e-02 5.806119329263777912e-02 3.120739997357068751e-01)
(-3.492738237954089858e-02 4.854598617780020442e-02 3.128112662088580742e-01)
(-3.072068596943006852e-02 4.124594504656801247e-02 3.126926352075056204e-01)
(-2.799267218700414103e-02 3.644225245553455589e-02 3.121874798417429431e-01)
(-2.711033990656963599e-02 3.433454173178784180e-02 3.115360748768482568e-01)
(-2.839120121142690856e-02 3.507923438827696694e-02 3.108413919376156187e-01)
(-3.210748907332569568e-02 3.879929189291939778e-02 3.101483523997034530e-01)
(-3.847395575928432010e-02 4.557043822379930331e-02 3.094851788815443094e-01)
(-4.762666624321497399e-02 5.539892061475752694e-02 3.088763921305169857e-01)
(-5.960346467794049030e-02 6.820264414993809643e-02 3.083434732641751053e-01)
(7.812377427534927810e-02 8.493639963585311592e-02 7.735474970439951137e-02)
(7.073286950704563147e-02 9.170449519515287695e-02 7.806464816923419647e-02)
(6.259152450643835908e-02 9.874336946196472786e-02 7.998149853632616213e-02)
(5.368962584309198288e-02 1.059617588467173521e-01 8.336936812793566132e-02)
(4.404573255709710866e-02 1.132300905867427709e-01 8.850731816542065089e-02)
(3.371686107634553481e-02 1.203743462834257205e-01 9.567389431221740015e-02)
(2.280959871849324097e-02 1.271702244788058545e-01 1.051221486813206651e-01)
(1.149158338509734950e-02 1.333406737969269618e-01 1.170459350200697413e-01)
(-0.000000000000000000e+00 1.385580827312415386e-01 1.315347405030594941e-01)
(-1.135378784076976864e-02 1.424552941138908513e-01 1.485239566712606429e-01)
(-2.218894906301624795e-02 1.446462700486060848e-01 1.677387933470071979e-01)
(-3.207173991232459276e-02 1.447631228098841538e-01 1.886657350596880334e-01)
(-4.054893470628505303e-02 1.425013490807034156e-01 2.105220286411084718e-01)
(-4.719685306898249721e-02 1.376804382396954463e-01 2.323038778104815349e-01)
(-5.168333104769675529e-02 1.303011990108888796e-01 2.528794292457303694e-01)
(-5.383477302154989624e-02 1.205923659693760724e-01 2.711388648206469743e-01)
(-5.368606665478482115e-02 1.090236667958379285e-01 2.861994200132726429e-01)
(-5.150213082546337834e-02 9.627552072012345030e-02 2.975826453762567270e-01)
(-4.775481082246438996e-02 8.316052726223048530e-02 3.053152388577586307e-01)
(-4.305267447787648749e-02 7.051228887029566128e-02 3.098944091371916842e-01)
(-3.805393045063356489e-02 5.907766803085385404e-02 3.121124604571964278e-01)
(-3.338287264017311684e-02 4.944493207324759249e-02 3.128143185450232289e-01)
(-2.958317936593474543e-02 4.203256528314575080e-02 3.126910494938349161e-01)
(-2.711207348943272394e-02 3.712454979056113713e-02 3.121902855453024261e-01)
(-2.635844344372657855e-02 3.492237630808340404e-02 3.115443130444839337e-01)
(-2.766158564832931974e-02 3.558285526679700467e-02 3.108541251986942089e-01)
(-3.131462085755178093e-02 3.922776415784395149e-02 3.101642817109560024e-01)
(-3.755248069761185636e-02 4.593122173475944203e-02 3.095028552464984539e-01)
(-4.653107081043487275e-02 5.569787898626542277e-02 3.088943065108898378e-01)
(-5.830771556040522524e-02 6.844461505436996718e-02 3.083602012288469418e-01)
(8.680608955386277803e-02 9.321718278610324759e-02 1.008795696871103709e-01)
(7.982312817475741007e-02 9.956376323905981318e-02 1.014143322725384599e-01)
(7.209586828848112139e-02 1.061381222772514871e-01 1.030214504573790657e-01)
(6.360505054723311624e-02 1.128491272977324295e-01 1.059384704849672953e-01)
(5.435659241704868944e-02 1.195699786672585613e-01 1.104181835593733563e-01)
(4.439133808318686952e-02 1.261314765109728397e-01 1.167135510618232397e-01)
(3.379564715406854769e-02 1.323177287781675815e-01 1.250574707819993303e-01)
(2.271311283358189506e-02 1.378630177012302449e-01 1.356306184319615027e-01)
(1.135378784076976864e-02 1.424552941138908513e-01 1.485239566712606429e-01)
(-0.000000000000000000e+00 1.457452840086405632e-01 1.636880583251753563e-01)
(-1.099557771907586252e-02 1.473690134272579721e-01 1.808957882147182172e-01)
(-2.122309288209814696e-02 1.469783258188393227e-01 1.996916310274198803e-01)
(-3.024344407211162003e-02 1.442881238137991295e-01 2.193873343678136578e-01)
(-3.763311575477836651e-02 1.391302598753641762e-01 2.390862175542530221e-01)
(-4.304224069353984605e-02 1.315102699193796965e-01 2.577622915317230312e-01)
(-4.625646712109724584e-02 1.216487869864060906e-01 2.744083088790985614e-01)
(-4.725414715970518292e-02 1.099995113194005697e-01 2.882006167598355484e-01)
(-4.622860052588151358e-02 9.721697939432460966e-02 2.986792083921893659e-01)
(-4.358006367510183082e-02 8.408801812839386547e-02 3.058361241614794834e-01)
(-3.985612401297630031e-02 7.142356093175598886e-02 3.100973559758328779e-01)
(-3.567302055440712411e-02 5.995697765382392713e-02 3.121691191695741274e-01)
(-3.163831041805587746e-02 5.027417171610587543e-02 3.128192903492100219e-01)
(-2.829758617075574939e-02 4.279700879514129752e-02 3.126860705378990968e-01)
(-2.612379330740801156e-02 3.781626281272198326e-02 3.121889857683990410e-01)
(-2.552707695107430536e-02 3.553916381612296643e-02 3.115492059343162867e-01)
(-2.686928290572705713e-02 3.612593355235579895e-02 3.108645626317301791e-01)
(-3.046562757172302863e-02 3.969972712360301387e-02 3.101788927006909891e-01)
(-3.657276746299217840e-02 4.633486234232441631e-02 3.095200346273760394e-01)
(-4.536814533242993636e-02 5.603617591392807268e-02 3.089123376729024373e-01)
(-5.693049265944066795e-02 6.872001557098324220e-02 3.083774559786333636e-01)
(9.402602962466760639e-02 9.997544659738137607e-02 1.271959213464152472e-01)
(8.752850767632493201e-02 1.058540274142300980e-01 1.275502090953663792e-01)
(8.030392834760720355e-02 1.119197752499212495e-01 1.288297097641285804e-01)
(7.232443872141694485e-02 1.180837574706724014e-01 1.312429717078687774e-01)
(6.358400975062246385e-02 1.242233883035042397e-01 1.350123587829333560e-01)
(5.410723202569843460e-02 1.301772744477799892e-01 1.403631280160274608e-01)
(4.395995246643238930e-02 1.357400736628330828e-01 1.475033738847220943e-01)
(3.326036047215383956e-02 1.406610084391166360e-01 1.565991199376506604e-01)
(2.218894906301624795e-02 1.446462700486060848e-01 1.677387933470071979e-01)
(1.099557771907586252e-02 1.473690134272579721e-01 1.808957882147182172e-01)
(-0.000000000000000000e+00 1.484875794652376624e-01 1.958783976435688468e-01)
(-1.041758962346250872e-02 1.476771487314461062e-01 2.123080154628049221e-01)
(-1.983967743855453297e-02 1.446713887357363726e-01 2.295890467286244851e-01)
(-2.785041238024564547e-02 1.393137679595883582e-01 2.469418822788425616e-01)
(-3.408709104052026068e-02 1.316087716403896157e-01 2.634690604889747267e-01)
(-3.830224372464320626e-02 1.217651229010449782e-01 2.782686060227131941e-01)
(-4.041692358821449838e-02 1.102098799285795294e-01 2.905958546234919671e-01)
(-4.055283764009727510e-02 9.756364126372796264e-02 3.000142101178603915e-01)
(-3.903245232608414800e-02 8.457717851535309639e-02 3.064848337836562076e-01)
(-3.633411889741342687e-02 7.203289842232343809e-02 3.103578250967953811e-01)
(-3.302399742853263237e-02 6.064569571806709830e-02 3.122447407946086217e-01)
(-2.968246186001700926e-02 5.099805649200339630e-02 3.128258048229236032e-01)
(-2.685225780860505881e-02 4.351849352158757012e-02 3.126767293042325702e-01)
(-2.501748415052051921e-02 3.850719426847513255e-02 3.121824863408746986e-01)
(-2.460810727774290219e-02 3.618208964716636972e-02 3.115497750412184463e-01)
(-2.600834711092657112e-02 3.671056335297435275e-02 3.108718876361728500e-01)
(-2.955638074734084214e-02 4.022009538440370069e-02 3.101915664649992910e-01)
(-3.553179613680201854e-02 4.678758409445530481e-02 3.095362802222610399e-01)
(-4.413532197024810921e-02 5.641978204966459354e-02 3.089302168664190829e-01)
(-5.546882614591805427e-02 6.903427637591659505e-02 3.083950922870771771e-01)
(9.930856353813476145e-02 1.047414549896170249e-01 1.555126469093784380e-01)
(9.337083383877824161e-02 1.101122560600601707e-01 1.556930381605010627e-01)
(8.673555113044686959e-02 1.156335104409161874e-01 1.566438838491221730e-01)
(7.936757135619762482e-02 1.212201770887409297e-01 1.585423384298050853e-01)
(7.124978865827046037e-02 1.267565298592591982e-01 1.615788999191088149e-01)
(6.239146342029827652e-02 1.320909040009966839e-01 1.659468597313606131e-01)
(5.283787762733924837e-02 1.370322209572213401e-01 1.718302526247323103e-01)
(4.268178104472627327e-02 1.413467291032364237e-01 1.793730395612079531e-01)
(3.207173991232459276e-02 1.447631228098841538e-01 1.886657350596880334e-01)
(2.122309288209814696e-02 1.469783258188393227e-01 1.996916310274198803e-01)
(1.041758962346250872e-02 1.476771487314461062e-01 2.123080154628049221e-01)
(-1.874637633452917553e-19 1.465589608048345482e-01 2.262021818745814095e-01)
(-9.641239609822927631e-03 1.433764217239719974e-01 2.408845444764056709e-01)
(-1.810563988826844467e-02 1.379818070537592312e-01 2.556999924769717270e-01)
(-2.502799249108265608e-02 1.303765212583249955e-01 2.698800995752168586e-01)
(-3.013334096194025813e-02 1.207490017797474002e-01 2.826474090721715071e-01)
(-3.329055313786884879e-02 1.094908282277304162e-01 2.933454502411931286e-01)
(-3.455109861477087541e-02 9.717987602591518503e-02 3.015690643086788580e-01)
(-3.415591925383188593e-02 8.452053194616386544e-02 3.072538694551781302e-01)
(-3.250684431798308432e-02 7.225749990479078677e-02 3.106734479545264493e-01)
(-3.011024822361573275e-02 6.108398580140805140e-02 3.123383144962735281e-01)
(-2.751059332461465445e-02 5.157720936705890297e-02 3.128327647666954703e-01)
(-2.523815789629836950e-02 4.417228919412168053e-02 3.126617158886522141e-01)
(-2.378357173543271808e-02 3.918509728227144440e-02 3.121694834629616944e-01)
(-2.359324169998278098e-02 3.684743006865476289e-02 3.115448422482113289e-01)
(-2.507231669747517211e-02 3.733861304570890161e-02 3.108751731957993814e-01)
(-2.858222042102767993e-02 4.079418384580993373e-02 3.102015745779838629e-01)
(-3.442600211742705141e-02 4.729644610258186554e-02 3.095510667929025073e-01)
(-4.282937761220646095e-02 5.685625730134730160e-02 3.089475980024519175e-01)
(-5.391924653292268915e-02 6.939474296135128562e-02 3.084129048567711973e-01)
(1.022264719009246953e-01 1.070974493077760797e-01 1.846998287424508611e-01)
(9.691326165448792274e-02 1.119304891993095352e-01 1.847261849476841133e-01)
(9.094483373503203794e-02 1.168824910139455997e-01 1.853670573353144169e-01)
(8.428064408401303442e-02 1.218740944774766022e-01 1.867674341085597545e-01)
(7.689361960527196782e-02 1.267989446070539317e-01 1.890858576630121690e-01)
(6.877963827934856222e-02 1.315174141651529460e-01 1.924818896570569260e-01)
(5.996452091066669515e-02 1.358547205536460578e-01 1.971092469331103825e-01)
(5.051495084265519159e-02 1.395985828436040188e-01 2.030966180288859835e-01)
(4.054893470628505303e-02 1.425013490807034156e-01 2.105220286411084718e-01)
(3.024344407211162003e-02 1.442881238137991295e-01 2.193873343678136578e-01)
(1.983967743855453297e-02 1.446713887357363726e-01 2.295890467286244851e-01)