/*--------------------------------*- C++ -*----------------------------------*\
  =========                 |
  \\      /  F ield         | OpenFOAM: The Open Source CFD Toolbox
   \\    /   O peration     | Website:  https://openfoam.org
    \\  /    A nd           | Version:  11
     \\/     M anipulation  |
\*---------------------------------------------------------------------------*/
FoamFile
{
    format      ascii;
    class       volScalarField;
    location    "100";
    object      k;
}
// * * * * * * * * * * * * * * * * * * * * * * * * * * * * * * * * * * * * * //

dimensions      [0 2 -2 0 0 0 0];

internalField   nonuniform List<scalar> 
272944
(
0.00378658
0.00454492
0.00432722
0.0042845
0.00429482
0.00430175
0.0043185
0.00432896
0.00434061
0.00434723
0.0043618
0.00437754
0.00439469
0.00442056
0.00443494
0.004465
0.00448311
0.0045183
0.00454828
0.00457436
0.00461636
0.00465341
0.004683
0.00471378
0.00473673
0.0047417
0.00474538
0.00474101
0.00474345
0.00474423
0.00475238
0.00474192
0.00474072
0.00474327
0.0047481
0.00474659
0.00474331
0.00473372
0.00472939
0.00473028
0.00471392
0.00467634
0.00463963
0.00460245
0.00456718
0.00453409
0.0045037
0.00447579
0.00445061
0.00443347
0.00441251
0.00439301
0.00437576
0.00435368
0.0043393
0.00432667
0.00431428
0.00430457
0.00429959
0.00429399
0.00427813
0.00432205
0.00454015
0.00377804
0.0048071
0.00220538
0.00168791
0.0016007
0.00158663
0.00157993
0.00156466
0.00155713
0.00153966
0.00152866
0.00151425
0.00149593
0.00147642
0.00145949
0.0014418
0.00142306
0.00140279
0.00138102
0.00135773
0.00133214
0.00130609
0.0012831
0.00126117
0.00124361
0.00123637
0.00123512
0.00123507
0.00123568
0.00123607
0.00123891
0.0012382
0.00123831
0.00124345
0.00124694
0.00125289
0.00125437
0.00126051
0.00126355
0.00126482
0.00126897
0.00127839
0.00130006
0.00132302
0.00134516
0.00137241
0.00139697
0.00141857
0.00143576
0.0014548
0.00147443
0.00148949
0.00150362
0.00151839
0.00153515
0.00154925
0.00155831
0.00156915
0.00157971
0.00159139
0.00159598
0.00161261
0.00170061
0.00221766
0.00480794
0.00452498
0.00156303
0.0010402
0.00098284
0.00097529
0.000973896
0.00097522
0.000973173
0.000966769
0.000963456
0.000960518
0.000957275
0.00095699
0.000950593
0.00094727
0.000943581
0.000942975
0.000939052
0.000931698
0.000927483
0.000923253
0.000919327
0.000919264
0.000916726
0.000912293
0.000915406
0.000911974
0.000915232
0.000915224
0.000911953
0.000915362
0.000912432
0.000916037
0.000915981
0.000916224
0.000913148
0.000913579
0.000913917
0.000914396
0.000915069
0.000916505
0.000922686
0.00092621
0.000927014
0.000931447
0.000935611
0.000942876
0.000946683
0.000947101
0.000950579
0.000953607
0.000960017
0.000959738
0.000962617
0.000969196
0.000971561
0.000973539
0.000972189
0.0009767
0.000974645
0.000983108
0.0010459
0.00157367
0.00452346
0.00447388
0.00143623
0.000953243
0.000902464
0.00090014
0.000899857
0.000896243
0.000899401
0.0008991
0.000895329
0.00089518
0.000898462
0.000894917
0.000898224
0.000894411
0.000897887
0.000897732
0.000894127
0.000897434
0.000897285
0.000893796
0.000897206
0.000897263
0.000897351
0.000893857
0.000894049
0.000894
0.00089405
0.000894165
0.00089417
0.000897644
0.000897557
0.000894011
0.000893946
0.000897355
0.000897161
0.00089711
0.000893607
0.000897106
0.000897004
0.000896902
0.000893252
0.000893156
0.00089665
0.000893134
0.000896676
0.000893306
0.000896673
0.000896836
0.000896799
0.000893416
0.000896885
0.000896729
0.00089337
0.000893346
0.000893471
0.000896981
0.000893521
0.000893878
0.000894061
0.000896632
0.000953766
0.00144688
0.00446412
0.00457562
0.00136872
0.000938102
0.000897812
0.000896197
0.000892488
0.000895897
0.000895867
0.00089576
0.000892153
0.000895696
0.000892195
0.000895731
0.000895827
0.000892292
0.000892414
0.000892497
0.000896124
0.000896207
0.000892824
0.00089643
0.000896536
0.000896696
0.00089327
0.000897014
0.000893534
0.000897156
0.000893662
0.000897268
0.000897343
0.000897347
0.000893706
0.000897183
0.000893578
0.000893496
0.000893309
0.00089326
0.000896629
0.000896552
0.000892882
0.000892691
0.000896037
0.000895756
0.000892113
0.000891921
0.000895188
0.000894982
0.00089481
0.00089459
0.000891027
0.000894228
0.000890707
0.000890425
0.000890301
0.00089363
0.000889943
0.000893346
0.000893147
0.000893207
0.000893271
0.000891882
0.000939516
0.00138449
0.00456611
0.00448803
0.00141512
0.000943169
0.000897995
0.000892421
0.000892304
0.000892268
0.000895639
0.000895594
0.000891998
0.000895578
0.000895561
0.00089214
0.000892132
0.000895781
0.000895823
0.000895947
0.000896126
0.000892731
0.000892819
0.000896455
0.000893123
0.000893277
0.000897007
0.000897139
0.000897361
0.00089746
0.000897532
0.000894109
0.000897625
0.000897712
0.000897628
0.000897591
0.00089402
0.000893903
0.0008973
0.000893661
0.000897051
0.000893298
0.000893238
0.000892994
0.000892928
0.000896062
0.000892321
0.000895561
0.000895367
0.000891626
0.00089489
0.000891244
0.000891024
0.000894275
0.000894043
0.000893998
0.000890267
0.000893583
0.000890027
0.000889855
0.00088987
0.000893272
0.000893235
0.00089566
0.000948089
0.0014298
0.00447362
0.00435127
0.00150082
0.000962676
0.000895155
0.000895893
0.00089575
0.000895665
0.000892
0.000895465
0.000895514
0.000895543
0.000895531
0.000895517
0.000892149
0.00089568
0.000895842
0.000892383
0.000896102
0.000892659
0.00089638
0.000896528
0.000893196
0.000893406
0.000893618
0.000893873
0.000894047
0.00089418
0.000894358
0.000894532
0.00089451
0.00089456
0.000894587
0.000898071
0.000898061
0.000897905
0.000894287
0.000894083
0.000897497
0.00089736
0.000893637
0.000893324
0.000893117
0.000892775
0.000892519
0.00089221
0.000892025
0.000891809
0.000891505
0.000891232
0.000891026
0.000894452
0.000890633
0.000893928
0.000893842
0.000890149
0.000893471
0.000893412
0.000893318
0.000893294
0.000893384
0.00089637
0.000960486
0.00151226
0.00433944
0.00433563
0.00152118
0.000967193
0.00089547
0.000895836
0.000892236
0.000895564
0.000892032
0.000891913
0.000892039
0.000891922
0.000891949
0.00089558
0.000892125
0.00089218
0.000892289
0.000895994
0.000892689
0.0008963
0.000896519
0.000896798
0.000893473
0.000893704
0.00089399
0.000897867
0.000894467
0.000898379
0.000898534
0.000898706
0.000895209
0.000898801
0.00089886
0.000898773
0.000895151
0.000898699
0.000894946
0.0008948
0.000894627
0.000897947
0.000894133
0.000893904
0.000897082
0.000896697
0.000896424
0.000896165
0.000895905
0.000895576
0.000895338
0.000891706
0.000891304
0.00089462
0.000890897
0.000890636
0.000893959
0.000890443
0.00089017
0.000893544
0.000893278
0.000889975
0.000890037
0.000893467
0.000968913
0.00153276
0.00432312
0.00433404
0.0015185
0.00096342
0.000898819
0.000895817
0.000895662
0.000892003
0.00089554
0.000895449
0.000891896
0.000891895
0.000895512
0.000895556
0.000892114
0.00089583
0.000895901
0.000892574
0.000896258
0.000893015
0.000893316
0.000893604
0.000897388
0.000894184
0.000898094
0.000898456
0.000898724
0.000895416
0.000899205
0.000899499
0.000896117
0.00089605
0.00089614
0.000896131
0.000899584
0.000899515
0.000899354
0.000895556
0.000895227
0.000898554
0.000898222
0.000897902
0.000894085
0.00089723
0.000896816
0.000896484
0.000896144
0.000892302
0.000895547
0.000891744
0.000891607
0.000894663
0.000894565
0.000894312
0.000894064
0.000890441
0.000893807
0.000890131
0.000890047
0.000893188
0.00089336
0.000896714
0.000965249
0.00153511
0.00432747
0.00434459
0.00150882
0.000961406
0.000895238
0.00089224
0.000895663
0.000891966
0.000891976
0.000891944
0.000895505
0.000895493
0.000895557
0.000895668
0.000895791
0.000895928
0.000896088
0.000896316
0.000896493
0.000896734
0.000893498
0.000897456
0.00089796
0.000898415
0.000898783
0.000899288
0.000899716
0.00089639
0.000900366
0.000900554
0.000897171
0.000897249
0.000897259
0.000897188
0.00090078
0.000900669
0.000900449
0.000896599
0.000896162
0.00089944
0.000895493
0.000895062
0.000894676
0.000894253
0.000893867
0.000897055
0.000893054
0.000896371
0.000892511
0.000892137
0.00089193
0.00089503
0.000891184
0.000894544
0.000894325
0.000890771
0.000893938
0.00089042
0.000890066
0.000889929
0.000893515
0.000896871
0.000963625
0.00152913
0.00433705
0.00435721
0.00149708
0.000962142
0.000895048
0.000892185
0.00089566
0.000895554
0.000895529
0.000891909
0.00089555
0.000895514
0.000892148
0.00089576
0.000895925
0.000896069
0.000896236
0.000896481
0.000896743
0.000893583
0.000897525
0.000898092
0.000898582
0.000895482
0.000896026
0.00090027
0.000900584
0.000897546
0.000897761
0.000898244
0.000898459
0.000902077
0.000902112
0.000902194
0.000902118
0.000898274
0.000901601
0.000897663
0.000897251
0.000900406
0.000896465
0.000895952
0.000895562
0.000898466
0.000894394
0.000897546
0.000897002
0.00089313
0.000892681
0.000895901
0.000891895
0.000891606
0.000891351
0.000894655
0.00089096
0.000890852
0.000894132
0.000893961
0.000890067
0.000890053
0.000893648
0.000893256
0.000961775
0.00151861
0.00435285
0.0043796
0.00148599
0.000959701
0.000894978
0.000895753
0.000892142
0.000891967
0.000892022
0.000895554
0.000895591
0.000892178
0.000895776
0.000892283
0.000896034
0.000896204
0.000892879
0.00089664
0.000893558
0.000897561
0.000898149
0.000894909
0.000895619
0.000895987
0.000896845
0.000901155
0.000901827
0.000902544
0.000902946
0.000899912
0.000900125
0.00090387
0.000903844
0.000903886
0.000903857
0.000903721
0.000903288
0.000903009
0.000902448
0.000898156
0.000901295
0.000896945
0.000896498
0.00089579
0.000898867
0.000898282
0.000894117
0.000897249
0.000896793
0.000896396
0.000892371
0.000892018
0.000895256
0.000891555
0.000891261
0.000894524
0.00089094
0.000890707
0.00089018
0.0008902
0.000890159
0.00089681
0.000963129
0.00150632
0.0043688
0.00438986
0.00147293
0.000953998
0.0008949
0.000892241
0.000892205
0.000892086
0.000895662
0.000892162
0.000895675
0.000892216
0.000895888
0.000892463
0.000896199
0.000892807
0.000893212
0.000897072
0.000893857
0.000897762
0.000898459
0.000898816
0.00089626
0.00089748
0.000898538
0.000897953
0.000902493
0.000903709
0.00090477
0.000905122
0.000905843
0.000902396
0.000906316
0.000906019
0.000902264
0.000906021
0.000901699
0.000904857
0.00090037
0.0008998
0.000902636
0.000898411
0.000901178
0.000896789
0.000899754
0.000898987
0.000894814
0.000894246
0.000893673
0.00089664
0.000896312
0.000895919
0.000895587
0.000895302
0.000891531
0.000891319
0.000891184
0.000894091
0.000890417
0.000890275
0.000893733
0.00089692
0.000961404
0.00150048
0.00438424
0.00441556
0.00145375
0.000953622
0.000898125
0.000892307
0.000892226
0.00089221
0.000895738
0.000892203
0.00089585
0.00089589
0.000896108
0.000896132
0.000892893
0.000893162
0.000896974
0.000897413
0.00089441
0.000897234
0.000896972
0.000895175
0.000894837
0.000895415
0.000896956
0.000898084
0.000900672
0.000903383
0.000904333
0.000905533
0.000905647
0.000906918
0.000904202
0.000908266
0.000908671
0.00090439
0.000907915
0.000907286
0.000902607
0.000901554
0.000900556
0.000903374
0.00089914
0.000897987
0.000900799
0.000900043
0.000895607
0.00089484
0.000894289
0.000897278
0.00089331
0.000896425
0.000896039
0.000892217
0.000891856
0.000895186
0.000891242
0.000890835
0.000894166
0.000894013
0.000894106
0.000896721
0.000955473
0.00148635
0.00439726
0.00443013
0.00143548
0.000950191
0.000898121
0.000892399
0.000895866
0.000895822
0.000892285
0.000892339
0.00089595
0.00089251
0.00089263
0.000892887
0.000896611
0.000893469
0.000893976
0.00089446
0.000895383
0.000895992
0.000894739
0.000892337
0.000889339
0.000889678
0.000889283
0.000891191
0.000891647
0.000895548
0.000898223
0.000897497
0.000899522
0.000902506
0.000903133
0.000900884
0.000905282
0.000906729
0.000907081
0.000910243
0.000909076
0.000907602
0.000906643
0.000901727
0.000904131
0.000899441
0.00090197
0.000897482
0.000896582
0.000899315
0.000898498
0.000894255
0.000893703
0.000896719
0.000892958
0.000895972
0.000895854
0.000895507
0.000891434
0.000894849
0.000894308
0.000890647
0.00089083
0.000896951
0.000956012
0.00146969
0.0044233
0.00446034
0.00141746
0.000943606
0.000897903
0.000895959
0.000892485
0.000895943
0.000892504
0.000896056
0.000896214
0.000896291
0.000892943
0.000896758
0.000896971
0.000893954
0.000894104
0.000894474
0.000894892
0.000892796
0.0008895
0.000887889
0.000884497
0.000879507
0.000880889
0.000885325
0.000888633
0.000895532
0.000889027
0.000886591
0.000890687
0.00089375
0.000887455
0.00089026
0.000902246
0.000905283
0.000908129
0.000909298
0.000907972
0.000907056
0.000909335
0.00090771
0.000902549
0.000904918
0.000903391
0.000902381
0.000897685
0.000896593
0.000895841
0.000898522
0.000894332
0.000897206
0.000893345
0.000892985
0.000896192
0.000895787
0.000891856
0.000894867
0.000891117
0.000894361
0.00089452
0.000893377
0.000953014
0.00145093
0.00444439
0.00447919
0.00140304
0.0009433
0.000894316
0.000896183
0.000896092
0.000896092
0.000896197
0.000892656
0.000896428
0.000892994
0.000893184
0.000893506
0.000897428
0.000894415
0.000894702
0.000895712
0.000894277
0.000886782
0.000881657
0.000886363
0.000887941
0.000892584
0.000891447
0.000890925
0.000879612
0.000882108
0.000897344
0.000886217
0.000883634
0.00088684
0.000881916
0.00087753
0.00089213
0.000897347
0.000904917
0.000912205
0.000914685
0.000913732
0.000912082
0.000910433
0.000908258
0.000903208
0.000901561
0.000900184
0.000898809
0.000897645
0.000900201
0.00089922
0.000894987
0.000894294
0.000897361
0.000896988
0.000896435
0.000892519
0.000891955
0.000891689
0.000891515
0.000891244
0.000891112
0.000896938
0.000946178
0.00143551
0.00446469
0.00451431
0.00138224
0.000936215
0.000897782
0.000892768
0.000896187
0.00089277
0.00089643
0.000892926
0.000896699
0.000893364
0.000893614
0.000894025
0.000897755
0.000898121
0.000894804
0.000895912
0.000886861
0.000879755
0.000887796
0.000880581
0.000877587
0.000903994
0.000904092
0.000930773
0.000901479
0.000890362
0.00088972
0.000887853
0.000876807
0.000880852
0.000876331
0.000878896
0.000884216
0.000895039
0.000899882
0.000904239
0.000910741
0.000915323
0.000914816
0.000913541
0.000911327
0.000905127
0.000907326
0.000905332
0.000903753
0.000902467
0.0009011
0.000900098
0.000895847
0.000895134
0.000897971
0.000897357
0.000896956
0.000892961
0.000896093
0.000892128
0.000895246
0.000891542
0.000891481
0.000893437
0.000945784
0.00141405
0.00449585
0.00454419
0.00135971
0.000935411
0.000894075
0.000896393
0.000892785
0.000892858
0.000896607
0.000896806
0.000897021
0.000897258
0.000897615
0.000898209
0.000895006
0.000894924
0.000894801
0.000889809
0.000882398
0.00088159
0.00087249
0.000912074
0.000911236
0.000960172
0.00095185
0.000910228
0.000899401
0.000919636
0.000897307
0.000893015
0.000891339
0.000871796
0.000878724
0.000884372
0.000880708
0.000896601
0.000890897
0.000897953
0.000901596
0.00091185
0.000912153
0.000915737
0.000914387
0.000907897
0.000909523
0.00090727
0.000905344
0.000903534
0.00089865
0.000900967
0.000896368
0.000899257
0.000895092
0.000897864
0.000893679
0.000893309
0.000892709
0.000892506
0.000895774
0.000891817
0.000891666
0.000895626
0.000938487
0.00139526
0.00452048
0.00456999
0.00133505
0.000928138
0.000894039
0.000893011
0.000892952
0.000896672
0.000896856
0.000897026
0.000893782
0.000893956
0.000894694
0.000895198
0.000895558
0.000896343
0.000894132
0.000885942
0.000879101
0.000881025
0.000883493
0.000903421
0.000904872
0.0010533
0.00102522
0.000960234
0.000948223
0.00091455
0.00103981
0.000917931
0.000924288
0.00088038
0.000893683
0.00089747
0.000887043
0.000891051
0.000893048
0.0008933
0.00089766
0.000905133
0.000908615
0.000914481
0.000916569
0.00091137
0.000912408
0.00090578
0.000903155
0.000901507
0.000899852
0.00089843
0.000900576
0.00089634
0.000899156
0.00089474
0.000898021
0.00089726
0.000896897
0.000893035
0.000892488
0.000895917
0.000891772
0.000895869
0.000937582
0.00138163
0.00455291
0.00460679
0.00130924
0.00092711
0.000897579
0.000893091
0.000893139
0.000896862
0.000893489
0.000893822
0.000897671
0.000894627
0.000898696
0.000899368
0.000895678
0.000897278
0.000892737
0.000885454
0.000873571
0.000876353
0.000893914
0.000932419
0.000910952
0.00102723
0.00102296
0.0010239
0.00096394
0.00111553
0.00106642
0.00100501
0.000953353
0.000973316
0.000908918
0.000925409
0.000908892
0.000906369
0.000900518
0.000893529
0.000892253
0.000897385
0.000899546
0.000910963
0.000912547
0.000917284
0.000911447
0.00091199
0.000905381
0.000906392
0.000904647
0.000903018
0.000897957
0.000900544
0.000896211
0.000898715
0.000894472
0.000894096
0.000893999
0.000897069
0.000893029
0.000895712
0.000894925
0.000895865
0.000933223
0.00135979
0.00458317
0.00465084
0.00128608
0.000923229
0.000897561
0.000896742
0.000893379
0.000893514
0.000897354
0.000894207
0.000894504
0.000895101
0.000899318
0.000900197
0.000899068
0.000896468
0.000891165
0.000883722
0.000877813
0.0009041
0.000906306
0.00101208
0.00109985
0.0010519
0.00130334
0.00113022
0.0012031
0.00120218
0.00119225
0.00112348
0.00106003
0.000996989
0.000959504
0.000975677
0.000910866
0.000915358
0.000917564
0.000908988
0.000902149
0.000891944
0.000895978
0.000898747
0.000904635
0.000912324
0.000913328
0.000910921
0.000907526
0.000904601
0.000902464
0.000900423
0.000898844
0.000900962
0.000899886
0.000899268
0.000894885
0.000894774
0.000894119
0.0008976
0.000893194
0.000895587
0.000890746
0.000894008
0.000925458
0.0013397
0.00461432
0.00468749
0.00126354
0.000919772
0.000894134
0.000893336
0.000893606
0.000897371
0.000894017
0.000894396
0.00089486
0.000895593
0.000900045
0.000901001
0.000901396
0.000897552
0.000891243
0.00088926
0.000873595
0.000900222
0.000951479
0.00103153
0.00107555
0.00127687
0.00127062
0.00156078
0.0015165
0.00128851
0.00132565
0.00120508
0.00112829
0.00114563
0.00123745
0.00120266
0.000985697
0.000949049
0.00094167
0.00093285
0.000925379
0.000902003
0.000898973
0.000898194
0.000900217
0.000913693
0.000917
0.000917043
0.000913776
0.000906701
0.00090742
0.000901518
0.000903378
0.000901981
0.000897119
0.000896144
0.000899207
0.000895032
0.000898378
0.000897823
0.000893208
0.000891711
0.00089137
0.000893153
0.000922467
0.0013216
0.00464493
0.00472625
0.00124233
0.000913404
0.000897591
0.000897131
0.000893671
0.000897533
0.000894246
0.000898359
0.000895426
0.000899874
0.000897035
0.000898267
0.000899118
0.000897893
0.000896701
0.000886243
0.000876238
0.00089552
0.000921868
0.00112548
0.00121999
0.00122159
0.00162234
0.00187938
0.00159028
0.00159564
0.00135234
0.00146658
0.00160871
0.00129577
0.00142774
0.00124329
0.00112915
0.00107378
0.00104044
0.000964856
0.000937727
0.000915228
0.000905724
0.00090738
0.000898622
0.000905975
0.000907827
0.000918661
0.0009157
0.000912052
0.000905175
0.000906219
0.000900597
0.000902668
0.000901088
0.00090053
0.000899459
0.000899457
0.000895322
0.000897832
0.000895955
0.000890634
0.000887973
0.000889522
0.000917553
0.001307
0.00467447
0.00473834
0.00123646
0.000912467
0.000894117
0.000893716
0.000893893
0.000894098
0.000894528
0.000894972
0.000895625
0.00089663
0.000897572
0.00089927
0.000903885
0.000901156
0.000897499
0.000886135
0.000883283
0.000918712
0.000902675
0.000909191
0.00109716
0.00124905
0.00148173
0.00157872
0.00150384
0.00159863
0.00187422
0.00208533
0.00182198
0.00175766
0.00229144
0.00195059
0.00165643
0.00134752
0.00116685
0.0010776
0.000971324
0.000936318
0.000913378
0.000915409
0.000901829
0.000907636
0.000907662
0.000912041
0.000913419
0.000910454
0.000910492
0.000907253
0.000901598
0.000903199
0.000898351
0.000897371
0.000896387
0.000899636
0.000899073
0.000893784
0.000894528
0.000889072
0.000887807
0.000887301
0.000914926
0.00129947
0.00468242
0.00474327
0.00123468
0.00091217
0.000897778
0.00089382
0.00089398
0.000894263
0.00089475
0.000895343
0.000896087
0.000897076
0.000901807
0.000903773
0.00090141
0.000904771
0.000895821
0.000887289
0.000881189
0.000894498
0.000926988
0.000977981
0.00106022
0.00136165
0.00139855
0.00152823
0.00196662
0.00230573
0.00245057
0.00237377
0.00316745
0.00585113
0.0084125
0.00837947
0.00603851
0.00320196
0.00158336
0.00119075
0.00104079
0.000974704
0.00094912
0.000920034
0.000905841
0.000908541
0.000900627
0.000903833
0.000915021
0.000911827
0.000907913
0.000908603
0.000902302
0.000900261
0.00089887
0.000901224
0.000900359
0.000895753
0.00089444
0.000894938
0.000888869
0.000886419
0.000882762
0.000882726
0.000912996
0.00130002
0.00468274
0.0047464
0.00123419
0.000915414
0.000897842
0.000893945
0.000894178
0.000898051
0.000894976
0.000895526
0.000899993
0.00090103
0.00089897
0.000904256
0.000902428
0.000900691
0.000895978
0.000884905
0.00088218
0.000888733
0.000941912
0.000983227
0.00111115
0.0013943
0.00154994
0.00158942
0.0020398
0.00252715
0.00260968
0.00406367
0.010845
0.0226139
0.0309548
0.0311449
0.0237326
0.0125924
0.00469483
0.00186082
0.0012188
0.00109234
0.000965633
0.000927836
0.000905777
0.000895422
0.000895505
0.000905672
0.000916344
0.000917146
0.000913162
0.000905824
0.000903159
0.000904676
0.000903127
0.000897993
0.000898997
0.00089305
0.000886681
0.000885732
0.000884458
0.000881378
0.000875789
0.000878385
0.000908491
0.0013001
0.00468138
0.00474852
0.00123477
0.000912077
0.000897895
0.00089754
0.000894155
0.000894563
0.000895028
0.000895793
0.000896594
0.000901376
0.000903237
0.000901176
0.000905905
0.000901579
0.000889494
0.000885008
0.000883463
0.000891855
0.000900424
0.00101747
0.00133532
0.00137122
0.00150437
0.00210084
0.00233313
0.00274854
0.00500335
0.0137939
0.0362299
0.0533139
0.0601663
0.06102
0.0563544
0.0418836
0.0187491
0.0054771
0.00172727
0.00116533
0.00101354
0.000961046
0.000922218
0.000915973
0.000905138
0.000905774
0.000918185
0.000918851
0.00091043
0.000906744
0.000903982
0.000905081
0.000899247
0.00090036
0.000894371
0.000884789
0.000881714
0.000872687
0.000868311
0.000873161
0.000872659
0.000870153
0.000904992
0.00130062
0.00467996
0.00474349
0.00123442
0.000915351
0.000897937
0.000894033
0.000897884
0.000898259
0.000898862
0.000899506
0.000900456
0.000901686
0.000903195
0.000904966
0.000905629
0.000902805
0.000893451
0.000885017
0.0008742
0.000894638
0.00101377
0.00106476
0.00126245
0.00131597
0.00180519
0.00226346
0.00239492
0.00413613
0.0128377
0.0387112
0.0595055
0.0698903
0.0745681
0.0761311
0.0750885
0.068287
0.0505762
0.0195252
0.00479017
0.00154909
0.00116469
0.000998217
0.000947499
0.000920568
0.000904935
0.000903374
0.000918129
0.000915657
0.000911453
0.000911292
0.000904472
0.00090158
0.000901583
0.000896141
0.000888875
0.000880087
0.000876177
0.000864411
0.000859988
0.000854285
0.000860411
0.00086614
0.000900382
0.00129483
0.00467905
0.00475072
0.00123562
0.000915412
0.000894444
0.000897572
0.000897909
0.000894818
0.000898863
0.000899493
0.000900633
0.000898276
0.000899666
0.00090504
0.000904868
0.00089846
0.000886488
0.000874927
0.000878759
0.000912029
0.000926213
0.00103283
0.0013373
0.0014138
0.00183889
0.00219512
0.00305949
0.0083775
0.0295439
0.0559182
0.0695921
0.0763636
0.0794918
0.0813461
0.0824571
0.080478
0.069962
0.044437
0.013398
0.00317158
0.00131384
0.00106172
0.000957356
0.000925009
0.00091833
0.000909428
0.000914591
0.000916606
0.000915923
0.000907979
0.000907945
0.000900821
0.00090028
0.000890122
0.000880235
0.000874459
0.000875031
0.000868728
0.000856323
0.000850943
0.000851788
0.0008533
0.000888116
0.00129549
0.00467605
0.00474502
0.00123546
0.000915382
0.000894405
0.000894008
0.000894343
0.000894668
0.000895162
0.000895893
0.000900622
0.000898122
0.000899586
0.000901162
0.000903532
0.000891509
0.000885772
0.000882865
0.00088167
0.000916223
0.000904722
0.000988741
0.0012992
0.00131589
0.00203138
0.00210001
0.00485914
0.016021
0.044193
0.0630173
0.0725536
0.0773731
0.0794958
0.0810247
0.0829049
0.0833845
0.0774446
0.0586604
0.0230749
0.0057715
0.00151658
0.00108718
0.000980284
0.000933453
0.000914153
0.000913561
0.000921677
0.000917231
0.000915807
0.000911805
0.000907619
0.000899416
0.000896533
0.000887188
0.00087878
0.000870449
0.000861392
0.000854045
0.000850645
0.000840606
0.000836075
0.000845917
0.000890929
0.00129341
0.00466575
0.00474095
0.00123363
0.000915715
0.000897899
0.000897521
0.000894222
0.000898172
0.000895175
0.000895778
0.000897005
0.000901741
0.000903094
0.000904005
0.000899976
0.000888096
0.000879708
0.000874482
0.000868835
0.000888676
0.000904995
0.00102996
0.00122767
0.00141056
0.00176159
0.0023177
0.00608363
0.0207984
0.0503247
0.0650812
0.0724599
0.0763324
0.0779404
0.079104
0.0812126
0.082587
0.0788936
0.0632387
0.0294189
0.00761434
0.00182355
0.00112219
0.000976897
0.00092744
0.000918151
0.000910186
0.000921212
0.000920463
0.000915911
0.000907926
0.000903888
0.000899176
0.000895694
0.000883157
0.000872681
0.000866126
0.000851358
0.000833796
0.00084295
0.00084764
0.000846735
0.000853495
0.000886765
0.00129268
0.00464781
0.00474046
0.0012363
0.000912413
0.000894293
0.000897493
0.000897782
0.000898163
0.000895208
0.000899354
0.000896837
0.000897742
0.000899122
0.000903724
0.000900301
0.000887781
0.000879664
0.000871604
0.000883515
0.000892539
0.000899486
0.000960859
0.00108758
0.00137082
0.00155983
0.00199469
0.00585224
0.0211866
0.0506684
0.0650774
0.0715643
0.0747194
0.0761803
0.0775989
0.0800726
0.0817821
0.07839
0.0627669
0.028804
0.00730017
0.0017151
0.00110625
0.000978435
0.00093651
0.000915086
0.000912448
0.000923648
0.00091627
0.000915472
0.00090781
0.000904066
0.000899636
0.000898242
0.000885841
0.00087241
0.00085919
0.000853284
0.000848436
0.000844922
0.000843899
0.000847782
0.000853112
0.000886739
0.0012919
0.00463746
0.00475123
0.00123669
0.000915525
0.000894265
0.000897434
0.000894095
0.000894451
0.000898648
0.000899318
0.000896557
0.000897529
0.000902619
0.000903662
0.000898747
0.000892052
0.000884761
0.00088142
0.000877938
0.000881804
0.000961856
0.00105335
0.00117733
0.00113314
0.00135742
0.00164899
0.00403883
0.0151397
0.0440417
0.0630635
0.070804
0.0738942
0.0754904
0.0774541
0.0802905
0.0815113
0.0760772
0.0569604
0.0214348
0.00513038
0.00144477
0.00105482
0.000966534
0.000932263
0.00091816
0.00092122
0.00092296
0.000918154
0.000911265
0.000907512
0.000904127
0.000900671
0.000899481
0.000891744
0.000886141
0.000872495
0.000862243
0.000861883
0.000848078
0.000853289
0.000851164
0.000865731
0.000893817
0.00130726
0.00464118
0.00474307
0.00123864
0.000915601
0.000897705
0.000893773
0.000894025
0.000897968
0.000898448
0.000899052
0.000899923
0.000900966
0.00090229
0.000899916
0.000902184
0.000896666
0.000890287
0.000888012
0.000871549
0.000877424
0.000896727
0.000995892
0.000995259
0.000987567
0.00114911
0.00139885
0.00245469
0.00764908
0.028118
0.0559928
0.0688074
0.0734057
0.0754587
0.0775628
0.0795057
0.0784291
0.0678314
0.0411413
0.0117378
0.00280292
0.00123907
0.00101759
0.000943177
0.000924779
0.000921898
0.000927886
0.000917698
0.000913608
0.000910355
0.000906929
0.000904098
0.000901177
0.000899446
0.000895351
0.000888458
0.00088034
0.000868189
0.000860676
0.000864853
0.000864977
0.000859188
0.000862462
0.000897767
0.00131051
0.00464031
0.00474867
0.00123936
0.00091565
0.000897608
0.000893657
0.000893883
0.00089419
0.000894627
0.000895275
0.000896115
0.000900495
0.000901667
0.000900883
0.000902077
0.000896907
0.000889791
0.000884375
0.000882134
0.000878471
0.00089228
0.000903087
0.000916479
0.000978295
0.0010324
0.00139124
0.00160676
0.00302795
0.0106196
0.0358453
0.0596612
0.0688879
0.0723212
0.0735691
0.0728275
0.0662733
0.0461411
0.016089
0.00407932
0.0015167
0.00113072
0.00100008
0.000947329
0.000927269
0.000927076
0.000924702
0.000919239
0.00091608
0.000909581
0.000909973
0.000903634
0.00090467
0.000901615
0.000896598
0.000891229
0.000881817
0.000871831
0.000868618
0.000865842
0.000868589
0.000863563
0.000871493
0.000903554
0.00128858
0.0046365
0.00474589
0.00124268
0.000915838
0.000897614
0.000893639
0.000893735
0.000897641
0.00089455
0.000895094
0.000895732
0.00090015
0.000897701
0.000902407
0.000899344
0.000901471
0.000893208
0.000888992
0.000881892
0.000883995
0.00091006
0.000892464
0.000896916
0.000922499
0.000979234
0.00114778
0.0013704
0.00173535
0.00347938
0.0116042
0.0334093
0.0510591
0.058121
0.058311
0.052378
0.0375048
0.0151557
0.00446426
0.00172783
0.00118504
0.00104087
0.000968907
0.000939041
0.000929693
0.000924112
0.000917906
0.000918197
0.000915028
0.00090845
0.000909138
0.000906763
0.000904343
0.000901686
0.000898458
0.000892943
0.000885846
0.000879666
0.000871302
0.000868691
0.000871931
0.000869508
0.000874531
0.000913601
0.00129286
0.00463665
0.00474305
0.00124451
0.000912582
0.000893887
0.000897021
0.000893726
0.000897449
0.000894237
0.000898313
0.000899031
0.000896184
0.000897178
0.000898033
0.000899168
0.000899469
0.000898346
0.000891653
0.000886178
0.000885054
0.000888146
0.000896498
0.000899059
0.000906058
0.00094091
0.00115156
0.00119974
0.00138676
0.00170501
0.00329831
0.00896506
0.0178676
0.0237924
0.0236954
0.0182927
0.0102372
0.00379255
0.00171695
0.00120444
0.0010548
0.000985587
0.000952619
0.000935958
0.000928226
0.000921093
0.000916249
0.00091287
0.00091005
0.000907164
0.000908074
0.000904236
0.000903474
0.000901098
0.000895487
0.000891321
0.000886487
0.000883274
0.000878493
0.00087304
0.000872771
0.000874937
0.000877773
0.000911361
0.00127841
0.0046368
0.00473252
0.00124567
0.000912838
0.000897406
0.000893425
0.00089711
0.000897363
0.000897648
0.000894439
0.000898607
0.000899366
0.000896687
0.000900911
0.000901801
0.000902148
0.000900613
0.00089424
0.000891776
0.000885627
0.000887229
0.000889154
0.000888804
0.000908063
0.00095027
0.000984776
0.00105493
0.00111235
0.00136306
0.00159145
0.00243283
0.00452311
0.00617987
0.00624105
0.00450981
0.00267373
0.0015765
0.00118655
0.00105836
0.000977416
0.000951791
0.000937994
0.000927904
0.000922622
0.000919447
0.000917168
0.00091109
0.000908795
0.000909701
0.000903316
0.000904594
0.00089922
0.000900169
0.000896299
0.000890134
0.000885353
0.000878071
0.000878999
0.00087834
0.000877173
0.000874821
0.000879077
0.000913528
0.00129891
0.00464103
0.00472752
0.00124903
0.000916583
0.000897248
0.000896778
0.000896882
0.000897157
0.000893956
0.000897816
0.000898461
0.000895429
0.000899652
0.000896982
0.0008981
0.00089961
0.00090146
0.000899783
0.000894897
0.000894407
0.000891673
0.000894267
0.000894881
0.000905507
0.00091171
0.000916794
0.000971243
0.00104985
0.00116606
0.00116925
0.00129396
0.00154809
0.00174265
0.00184977
0.00153909
0.00133528