/*--------------------------------*- C++ -*----------------------------------*\
  =========                 |
  \\      /  F ield         | OpenFOAM: The Open Source CFD Toolbox
   \\    /   O peration     | Website:  https://openfoam.org
    \\  /    A nd           | Version:  11
     \\/     M anipulation  |
\*---------------------------------------------------------------------------*/
FoamFile
{
    format      ascii;
    class       volScalarField;
    location    "100";
    object      nut;
}
// * * * * * * * * * * * * * * * * * * * * * * * * * * * * * * * * * * * * * //

dimensions      [0 2 -1 0 0 0 0];

internalField   nonuniform List<scalar> 
272944
(
0.00309262
0.0042905
0.00426916
0.00426462
0.00427314
0.00427992
0.00429501
0.00430467
0.00431445
0.00431953
0.00433189
0.00434541
0.00435993
0.00438292
0.00439419
0.00442078
0.00443531
0.00446661
0.00449253
0.00451439
0.00455187
0.00458457
0.00461016
0.00463745
0.0046582
0.00466218
0.00466501
0.00466017
0.00466217
0.00466302
0.00467072
0.00465975
0.00465866
0.0046621
0.00466742
0.00466595
0.00466302
0.00465391
0.00465032
0.00465203
0.00463759
0.00460354
0.00457101
0.0045383
0.0045075
0.00447874
0.0044525
0.00442854
0.00440702
0.00439321
0.00437531
0.00435844
0.0043437
0.00432407
0.00431218
0.00430129
0.00429087
0.00428213
0.00427879
0.00427307
0.004259
0.00426459
0.00428648
0.00308546
0.00445529
0.0163135
0.0134117
0.0129602
0.0128435
0.0128051
0.0127077
0.0126976
0.0125501
0.0125151
0.0123932
0.0123024
0.0121415
0.0120642
0.011951
0.0117998
0.0116679
0.0115246
0.0113694
0.0111952
0.0110165
0.0108908
0.0107403
0.0105895
0.0105406
0.0105323
0.0105327
0.0105378
0.0105711
0.0105941
0.0105612
0.0105888
0.0106328
0.0106651
0.0107139
0.0107275
0.0107793
0.0107755
0.0108154
0.0108483
0.0108849
0.0110709
0.0112288
0.0113451
0.0115328
0.0117289
0.0118391
0.0119758
0.0120668
0.0122268
0.012318
0.0124038
0.0124635
0.0126058
0.0126624
0.0127134
0.0128084
0.0128754
0.012944
0.0129661
0.013039
0.013561
0.0164639
0.00445713
0.00441767
0.0126679
0.00920401
0.00882652
0.00879966
0.00879152
0.00880995
0.00876559
0.00874476
0.00868979
0.00866975
0.00864691
0.0086822
0.00860089
0.00860929
0.0085838
0.00855623
0.00852947
0.00847186
0.00844286
0.00844412
0.00838644
0.00839347
0.00840648
0.00833758
0.00839692
0.00836525
0.0083642
0.00839471
0.00833372
0.00836491
0.0083368
0.00840053
0.00840164
0.00840384
0.0083453
0.00837998
0.00835275
0.00838797
0.00839398
0.00840468
0.00845567
0.00848018
0.00847861
0.00850993
0.00850771
0.00856496
0.00859091
0.00858647
0.00861012
0.00862988
0.0086812
0.0087026
0.00872265
0.00877598
0.00876114
0.00880403
0.00875647
0.00882197
0.0087689
0.00883522
0.00926356
0.0127487
0.00441684
0.0044286
0.0119029
0.00866107
0.00828434
0.0082986
0.00826617
0.00826537
0.00826428
0.00826241
0.00822809
0.00822732
0.00825776
0.00825628
0.00828672
0.00822069
0.0082834
0.00828166
0.00824802
0.00827794
0.00824506
0.00824302
0.00824269
0.00827306
0.00827287
0.00820876
0.00824025
0.00820808
0.00820775
0.00823906
0.0082386
0.00823938
0.00826942
0.00823687
0.00823636
0.00826813
0.00823581
0.00823603
0.00820463
0.00826855
0.00826861
0.00826862
0.00820528
0.00820546
0.00826925
0.00820718
0.00824059
0.00824086
0.00824193
0.00827474
0.00827484
0.00821338
0.00827604
0.00824414
0.00824387
0.00821289
0.008214
0.00824572
0.00821371
0.00824623
0.00824735
0.00823594
0.00864302
0.0120469
0.00441959
0.00451809
0.0115091
0.00852796
0.0082809
0.00827079
0.00820656
0.00827006
0.00827001
0.00826967
0.00820574
0.00823854
0.0082062
0.00823871
0.00827001
0.00820638
0.00823757
0.00820696
0.0082705
0.00823953
0.00823815
0.00827043
0.00827009
0.00827031
0.0082067
0.0082705
0.00820657
0.00823869
0.00820566
0.00823797
0.00826898
0.00826855
0.0082041
0.0082669
0.00823397
0.00823353
0.00820165
0.00823258
0.00823381
0.00826491
0.00820159
0.00820105
0.008233
0.0082317
0.00823017
0.00822961
0.00826104
0.00826014
0.0082595
0.00822782
0.00822641
0.00822598
0.00819422
0.00819205
0.00819154
0.00825283
0.00818861
0.00825012
0.00821794
0.00824805
0.00821795
0.00820085
0.00854904
0.0116362
0.00450949
0.00444365
0.0117836
0.00855254
0.00828261
0.00820586
0.00820592
0.0082376
0.00823816
0.00826915
0.00820535
0.00826926
0.00823822
0.00823721
0.0082062
0.00827007
0.00823899
0.00823937
0.00827111
0.00823877
0.00823842
0.00823975
0.00820773
0.0082076
0.00827105
0.00823993
0.00827143
0.00827102
0.00827043
0.00823777
0.00823839
0.00826974
0.00826888
0.00826853
0.00823575
0.00823485
0.0082359
0.00820348
0.00826644
0.00820236
0.00823378
0.00820226
0.00823378
0.00823342
0.00823115
0.00826248
0.00826208
0.00819824
0.00822942
0.00822742
0.00819599
0.00825724
0.00822534
0.00825594
0.00819164
0.00822243
0.00822048
0.00818824
0.00821886
0.00821891
0.00821798
0.00823545
0.00863543
0.0118995
0.00443031
0.00432063
0.0123108
0.00871893
0.00822551
0.00823891
0.00823879
0.00827022
0.00820578
0.00823821
0.00826964
0.00827014
0.00826977
0.00823858
0.00823793
0.0082392
0.0082706
0.00820721
0.00824042
0.00820756
0.00827133
0.00824024
0.00820783
0.0082079
0.00820808
0.00820862
0.00820838
0.00820789
0.00820798
0.00823913
0.00820702
0.00820691
0.00823777
0.00826972
0.00826974
0.0082378
0.00823604
0.00820454
0.00823718
0.00826828
0.00823547
0.00820349
0.00823394
0.00820183
0.00820125
0.0082
0.00823061
0.00823005
0.00819808
0.00819691
0.00822648
0.00822863
0.00819436
0.00822543
0.00825594
0.0081916
0.0082533
0.00825256
0.0082518
0.00825055
0.00825102
0.00827207
0.00867594
0.0124277
0.00430988
0.00430847
0.0124399
0.00875108
0.0082283
0.00823886
0.00823758
0.00823864
0.00823703
0.00820601
0.00823782
0.00820616
0.00820618
0.00827012
0.00823782
0.00820697
0.00820707
0.00824022
0.00823931
0.00824061
0.00827193
0.0082725
0.00820899
0.00820898
0.00820937
0.0082735
0.00820912
0.00827388
0.00827336
0.00827337
0.00820897
0.00824115
0.00827217
0.00824014
0.00820715
0.00827105
0.00820665
0.00823733
0.00823723
0.00826964
0.0082362
0.00823611
0.00826749
0.00823494
0.00823459
0.00826503
0.00826435
0.00823241
0.00826254
0.00823044
0.00819765
0.0082598
0.00819598
0.00819464
0.00825672
0.00822466
0.00819204
0.0082536
0.0082208
0.00822002
0.00822013
0.0082146
0.00877345
0.0125273
0.00429694
0.00430651
0.0124254
0.00871878
0.00825983
0.00827005
0.00826989
0.00823701
0.00827016
0.00823906
0.00820628
0.00820641
0.00827013
0.00823937
0.0082071
0.00827143
0.00827108
0.00820861
0.00824119
0.00824051
0.00824155
0.00824186
0.00824339
0.00821141
0.00824447
0.00827589
0.00824453
0.00824239
0.00824393
0.00824463
0.00824294
0.00821034
0.00824157
0.00824102
0.00824196
0.00827299
0.00827247
0.00823901
0.0082069
0.00827043
0.00823857
0.00823803
0.00823631
0.00826768
0.00826624
0.00826561
0.00823388
0.00820062
0.00823263
0.00819942
0.00823026
0.00822926
0.00826036
0.00825893
0.00822702
0.00822479
0.00825642
0.00822233
0.00822186
0.00821949
0.0082208
0.00827562
0.00871223
0.0125833
0.00430088
0.00431606
0.0123313
0.00867374
0.00822734
0.0082064
0.00826977
0.00820603
0.00823718
0.00823746
0.00827026
0.00826998
0.00827038
0.00827101
0.00827151
0.00827206
0.00824161
0.00824243
0.00824256
0.008243
0.00821091
0.00824475
0.00824643
0.00824734
0.00827812
0.00827944
0.00827972
0.00821511
0.00827958
0.00827862
0.00824564
0.00824509
0.0082443
0.00821229
0.00827622
0.00827592
0.00827515
0.00824141
0.00820861
0.00827213
0.00820762
0.00820642
0.0082058
0.008205
0.00823504
0.00826718
0.0082024
0.00826612
0.00823281
0.00823154
0.00823175
0.00826191
0.00819744
0.00826016
0.00825918
0.00819648
0.00825713
0.008194
0.00819115
0.00818926
0.00825256
0.00827707
0.00870104
0.0125209
0.00430957
0.00432684
0.0122578
0.00868581
0.00822597
0.00820599
0.00826978
0.00823925
0.00826995
0.00820642
0.00827041
0.00823928
0.00823866
0.00827161
0.00827254
0.00827307
0.00827323
0.00827414
0.00827478
0.00824364
0.00824625
0.00824884
0.00828004
0.00824767
0.00821838
0.00828402
0.00825088
0.00821905
0.00824841
0.008218
0.00824915
0.00828065
0.00824854
0.00827986
0.00824815
0.00821366
0.00827674
0.00821178
0.00821061
0.00827356
0.00824056
0.00823921
0.00823921
0.00826937
0.00820467
0.00823699
0.00823516
0.00820259
0.00820131
0.00823337
0.00819873
0.00819815
0.00819767
0.00826029
0.00822741
0.00819673
0.00825854
0.00822616
0.00819118
0.00819029
0.00822314
0.00821383
0.00868959
0.0124884
0.00432374
0.00434729
0.0121914
0.00866948
0.00825625
0.00823862
0.00820647
0.00820583
0.00820655
0.00827021
0.00823967
0.00823874
0.00827162
0.00820825
0.00827284
0.00827337
0.00824152
0.0082748
0.00824442
0.0082789
0.00828133
0.00821714
0.00821944
0.0082185
0.00822146
0.00825558
0.00825597
0.00828908
0.00825578
0.00822521
0.00825322
0.00825494
0.00825321
0.00828385
0.00828388
0.00828349
0.00825008
0.00828139
0.00827945
0.00821278
0.00827645
0.00820982
0.0082409
0.00820775
0.00824006
0.00826936
0.00820435
0.00823673
0.00826653
0.00826581
0.00820064
0.00820005
0.00826258
0.0081994
0.00819836
0.00826017
0.008228
0.00819563
0.00819136
0.00822168
0.00819054
0.00827661
0.00870795
0.012384
0.00433798
0.00435521
0.0121113
0.00862446
0.00825545
0.00820614
0.00823741
0.00820665
0.00827048
0.00823842
0.0082397
0.0082078
0.00827186
0.00820898
0.00827321
0.00821046
0.0082435
0.00824681
0.0082157
0.00824839
0.00828216
0.00828147
0.00822273
0.00822761
0.00823047
0.00821913
0.00825301
0.00828803
0.00829367
0.00829037
0.0082934
0.00825861
0.00829356
0.00829029
0.00822461
0.00829115
0.00822252
0.00828616
0.00824884
0.00821705
0.00827872
0.00821426
0.00827579
0.00820979
0.00827272
0.00823972
0.00823681
0.00823557
0.00820351
0.00823448
0.00826532
0.0082644
0.00826424
0.00826302
0.00819947
0.00822939
0.00819875
0.00822594
0.00819288
0.00822192
0.00825365
0.00824697
0.00872896
0.0123944
0.00435109
0.00437806
0.0120153
0.00862792
0.00825435
0.00820633
0.00820648
0.00823792
0.00827049
0.00820743
0.00827127
0.00824076
0.00827285
0.00824179
0.0082418
0.00824331
0.00824638
0.00824887
0.00821872
0.00824201
0.00823554
0.0082154
0.00820592
0.00823384
0.00824085
0.00821255
0.00822755
0.00827519
0.00827726
0.00825008
0.00824503
0.00825486
0.00822596
0.00829468
0.00829786
0.00825984
0.00826315
0.00829313
0.00822415
0.00825114
0.00821681
0.00824879
0.00824743
0.00821212
0.00824379
0.00824266
0.00820767
0.00820556
0.00820477
0.00826698
0.00820398
0.00826666
0.00826572
0.00820194
0.00820081
0.00823272
0.00819796
0.00819493
0.00825702
0.00825539
0.00825621
0.00824459
0.00865181
0.0122807
0.00436117
0.00438958
0.0118969
0.00863524
0.00828499
0.0082066
0.00823925
0.00823973
0.00820713
0.00820769
0.00824045
0.00820842
0.0082088
0.00821048
0.00827426
0.00821375
0.00824728
0.00821941
0.0082559
0.00825814
0.00821313
0.00821719
0.00815355
0.00817847
0.00813677
0.00814358
0.00816744
0.00816294
0.00820945
0.00816272
0.008174
0.00822773
0.00822744
0.00820601
0.00821409
0.00822972
0.00826913
0.00827101
0.00829753
0.00825995
0.0082898
0.00822115
0.00825086
0.0082465
0.00824604
0.00821182
0.00824071
0.00824104
0.00823878
0.00820454
0.0082344
0.00823562
0.00823482
0.00826508
0.00826685
0.00826496
0.00819837
0.00826149
0.00825725
0.0081925
0.00819453
0.00827666
0.00869477
0.0122078
0.00438389
0.00441627
0.0117818
0.00858338
0.00825182
0.00823873
0.00823824
0.00824003
0.0082389
0.00827163
0.00827246
0.00827252
0.00821016
0.00827503
0.0082457
0.00824666
0.00821589
0.00824773
0.00825025
0.00822637
0.0081935
0.00814614
0.00813863
0.00808596
0.00808873
0.00808988
0.00810974
0.0081601
0.0080881
0.00805678
0.00808306
0.00813572
0.00807152
0.00809209
0.00816635
0.0081945
0.00825611
0.00827383
0.0082371
0.00826803
0.00829844
0.0082926
0.00822327
0.00828588
0.00828
0.00827907
0.0082436
0.00820966
0.008209
0.00823933
0.00823641
0.00826699
0.00820461
0.0082045
0.0082674
0.00826565
0.00820053
0.00825992
0.00819575
0.0082561
0.00825766
0.00821222
0.00867535
0.0120888
0.00440142
0.00443143
0.0116969
0.00858889
0.00821848
0.00827095
0.00827076
0.00824033
0.00827182
0.00820814
0.00827269
0.00820966
0.00821023
0.00821234
0.00824692
0.00821768
0.00821838
0.00825737
0.00824132
0.00816817
0.00809254
0.00813529
0.0081451
0.0082091
0.00819413
0.00814935
0.00803243
0.00806627
0.00816126
0.00807776
0.00804413
0.00806232
0.00798179
0.00793512
0.00805956
0.0081332
0.00817157
0.00827429
0.00827348
0.00830805
0.00830397
0.00830095
0.00829194
0.00822551
0.00822118
0.00821865
0.00824597
0.00821219
0.00824304
0.00824079
0.00823824
0.0082061
0.00823856
0.00826953
0.00823659
0.00823352
0.00819967
0.00819827
0.00819789
0.00819503
0.00819437
0.00824385
0.00859118
0.0119848
0.00441792
0.00446251
0.0115307
0.00850241
0.00828071
0.00823864
0.00823973
0.00823924
0.00827268
0.00823972
0.00824284
0.0082415
0.00821167
0.00824514
0.00824677
0.00827911
0.00821557
0.00825447
0.00813973
0.00810491
0.00818016
0.00808997
0.00808366
0.00832453
0.00831755
0.00852694
0.00826117
0.0081392
0.00809362
0.00808999
0.00797879
0.00799859
0.00792181
0.00793429
0.00800203
0.00806642
0.00813544
0.00817564
0.00821104
0.00829931
0.00830645
0.00830889
0.0082715
0.00822853
0.00826145
0.00828535
0.00828212
0.00824861
0.00824496
0.00827385
0.00824148
0.00820995
0.00827128
0.00826988
0.00826979
0.0082046
0.00826657
0.00823118
0.00826127
0.00819606
0.00819626
0.0082104
0.00859665
0.0118531
0.00444513
0.00448829
0.0114117
0.0085349
0.00821517
0.00827096
0.00820723
0.00820801
0.0082726
0.00827378
0.00827416
0.00824404
0.00824524
0.00828015
0.00824869
0.0082446
0.00821088
0.0081634
0.00809685
0.00812278
0.00801698
0.0083876
0.00840375
0.00882814
0.00873926
0.00834252
0.00824158
0.00838033
0.00815741
0.00812469
0.00809667
0.00790278
0.00792811
0.00796487
0.0079262
0.00806393
0.00800531
0.0080668
0.00813414
0.00823892
0.00825885
0.00827511
0.00827951
0.00823624
0.00829843
0.00826004
0.00828665
0.0082502
0.0082154
0.00824496
0.00821082
0.00827411
0.00821096
0.00824066
0.00823674
0.00820531
0.0082024
0.00820205
0.00826438
0.00819688
0.00819635
0.00822944
0.00854009
0.0117268
0.00446591
0.00450986
0.0112147
0.00847796
0.00824488
0.00823876
0.00820747
0.00824161
0.00824223
0.00827349
0.00821103
0.00821078
0.00824562
0.00824802
0.00824889
0.00822114
0.00819861
0.00812411
0.00806388
0.00811474
0.00814537
0.00831163
0.00834628
0.00970499
0.00940828
0.0088127
0.00867961
0.00834423
0.00943508
0.00832721
0.00836668
0.00792808
0.00803164
0.00805411
0.00798392
0.00799029
0.00800439
0.00800539
0.00807552
0.00812353
0.00819904
0.00827061
0.00827704
0.00824885
0.00827747
0.00823389
0.00822456
0.00825319
0.00821869
0.00821542
0.00824364
0.00821231
0.00827502
0.0082086
0.00824341
0.00827002
0.0082695
0.00823555
0.0082322
0.00826368
0.0081957
0.00826133
0.00857203
0.0116853
0.00449419
0.00454217
0.0110371
0.00847775
0.00827687
0.0082076
0.00820793
0.00824175
0.00820932
0.00821094
0.00824391
0.00824418
0.00824828
0.00825012
0.00821142
0.00825324
0.00820888
0.00811259
0.0080366
0.00806955
0.00822102
0.00858029
0.00837685
0.00943056
0.00939206
0.00937595
0.00880095
0.010151
0.00964058
0.00904743
0.00858081
0.00873696
0.00814231
0.00825626
0.00810805
0.00808628
0.00806381
0.00797908
0.00800153
0.00803329
0.00806345
0.00821172
0.00821767
0.00831319
0.00825141
0.00827639
0.00826444
0.00828857
0.0082546
0.00825034
0.00821399
0.00827635
0.00824404
0.00827273
0.00820769
0.00823838
0.00820957
0.00827057
0.00823521
0.00826
0.0082542
0.00826024
0.00854251
0.0115501
0.00452039
0.00458157
0.0109105
0.00845121
0.00827586
0.00827089
0.00820885
0.00820934
0.00824279
0.00824273
0.00821184
0.00824496
0.00827981
0.00828281
0.00826888
0.00820768
0.00815568
0.00808854
0.00804587
0.00830096
0.00832808
0.00932198
0.010121
0.00964313
0.0119432
0.0103244
0.0109474
0.0108663
0.0107158
0.0100451
0.00943788
0.00887552
0.00851871
0.00862856
0.00808464
0.00812821
0.0081574
0.00807328
0.00805998
0.00796246
0.00801279
0.00808042
0.00812173
0.00821475
0.00824835
0.0082509
0.00823993
0.0082617
0.00825767
0.00825117
0.00824761
0.00824482
0.00824263
0.00827415
0.00820842
0.00824197
0.00820785
0.00827309
0.00820349
0.00825697
0.00818311
0.00821131
0.00845159
0.0114052
0.00454749
0.00461394
0.0107258
0.00842739
0.00824339
0.00820757
0.00824028
0.00827418
0.00821014
0.00821122
0.00821195
0.00821476
0.00828204
0.00828602
0.00825117
0.00820833
0.00814605
0.0081311
0.00802267
0.00827687
0.0087459
0.00948358
0.00985779
0.0116824
0.0115876
0.0141733
0.0137027
0.0115981
0.0118453
0.0106601
0.00991491
0.0100052
0.0107939
0.0104523
0.008618
0.00829781
0.0082928
0.00822152
0.00819454
0.00804759
0.00804348
0.00803043
0.00806554
0.00823671
0.00826057
0.00831851
0.00831357
0.00827077
0.00829327
0.0082537
0.0082832
0.00828076
0.00824393
0.00821166
0.00827583
0.0082106
0.00824475
0.00827273
0.00823277
0.00818859
0.00818794
0.00823365
0.00846365
0.011298
0.00457441
0.00464858
0.0106095
0.00837609
0.00827445
0.00827227
0.00820871
0.00827381
0.00821014
0.00827591
0.00821392
0.00828103
0.00824918
0.00822234
0.00822253
0.00823272
0.00821442
0.00809017
0.00803493
0.00820073
0.00844375
0.0103282
0.0111786
0.011141
0.014733
0.0169765
0.0143018
0.014234
0.0119049
0.0127666
0.0137941
0.0109608
0.0119354
0.0104003
0.00949775
0.00914884
0.00897808
0.00843783
0.00826547
0.00811877
0.00804907
0.00809613
0.00806657
0.00812121
0.00819137
0.00831823
0.00831804
0.00827678
0.00823282
0.00825895
0.00822116
0.00825148
0.00824596
0.0082482
0.0082758
0.00827973
0.00824505
0.00823912
0.00825617
0.00817793
0.00815688
0.00816926
0.00839824
0.011221
0.00459989
0.00465956
0.01054
0.0083386
0.00824151
0.00823982
0.00824032
0.0082099
0.00824181
0.00821171
0.00821301
0.00824735
0.00821805
0.00822424
0.00828742
0.00822126
0.00820874
0.00807373
0.00805524
0.00842161
0.00825075
0.00829941
0.0100147
0.0113368
0.0133819
0.0141617
0.0133662
0.0140312
0.0161145
0.0173868
0.0146753
0.0136457
0.0174872
0.014899
0.0129681
0.0109164
0.00971734
0.00919543
0.00843067
0.00823807
0.00810088
0.00813924
0.00807695
0.00815122
0.00814697
0.00824081
0.00825005
0.0082502
0.0082736
0.0082917
0.00822478
0.00825104
0.00824707
0.00824589
0.0082141
0.00827902
0.008246
0.0082
0.00824164
0.00816335
0.00818674
0.00818029
0.00840837
0.0111975
0.00460621
0.00466396
0.0105283
0.00833632
0.00827442
0.00823973
0.00820905
0.00820986
0.00824216
0.00824366
0.00824526
0.00821705
0.00825259
0.00829173
0.00825721
0.00827848
0.00818238
0.00809863
0.00802079
0.00815226
0.00844384
0.00889541
0.00964103
0.0122942
0.0125426
0.0136089
0.0172761
0.0197828
0.0202661
0.0185266
0.0221758
0.0354545
0.0469366
0.0469297
0.0371533
0.0224064
0.0123652
0.00978677
0.0088324
0.00844959
0.00832844
0.00816272
0.00808131
0.008143
0.00807384
0.00812594
0.00825264
0.00825179
0.00823961
0.00826616
0.00822497
0.00821999
0.00821773
0.00824731
0.00824812
0.00824135
0.00820217
0.00824055
0.00815816
0.0081397
0.00814126
0.00813892
0.00836478
0.0112134
0.00460557
0.00466663
0.0105539
0.00839679
0.00827436
0.00824012
0.0082407
0.00824345
0.00824256
0.00821249
0.00824751
0.00828119
0.00825366
0.00826079
0.00826211
0.00820239
0.00814604
0.00803824
0.00801627
0.00808332
0.00856153
0.00891864
0.0100402
0.0125474
0.0137903
0.0139855
0.0175083
0.0208221
0.0199731
0.0258276
0.0523748
0.0993075
0.135088
0.135323
0.103474
0.0610055
0.0299373
0.0142664
0.00999967
0.00931377
0.00839368
0.00818729
0.00805205
0.00800971
0.00804521
0.00816367
0.00825461
0.00829079
0.00828011
0.00823544
0.00825852
0.00825771
0.00825447
0.00824705
0.00826353
0.00821482
0.00813033
0.00812518
0.00814897
0.0081257
0.00807878
0.008071
0.00832873
0.0112237
0.00460331
0.0046683
0.010559
0.00836615
0.00827426
0.00827257
0.00820884
0.00821034
0.00821084
0.00824403
0.00821435
0.00825067
0.00828956
0.00826005
0.00828738
0.00823235
0.00807862
0.00802952
0.00801447
0.00809077
0.00816082
0.00919889
0.0120162
0.0122737
0.0133047
0.0181579
0.0192577
0.0212003
0.0314008
0.0624211
0.152463
0.229533
0.264815
0.266324
0.237167
0.172166
0.0824991
0.0335763
0.0132556
0.00961205
0.00867902
0.00839684
0.008167
0.00814183
0.00811222
0.00815021
0.00826068
0.00832931
0.00824907
0.00823757
0.00826223
0.00825694
0.00821587
0.00823628
0.00822034
0.0081091
0.00811782
0.00801138
0.00800559
0.00802541
0.00805484
0.0080292
0.00833219
0.0112237
0.00460092
0.00466319
0.0105278
0.00839618
0.00827425
0.00823979
0.0082735
0.00827451
0.00824503
0.00824607
0.0082794
0.00828285
0.00825539
0.00828972
0.00825307
0.00824155
0.00814032
0.00802532
0.00792402
0.00812753
0.00916789
0.00959963
0.011316
0.0116837
0.0157869
0.0189627
0.0188561
0.0269604
0.0591342
0.162621
0.255768
0.317059
0.350738
0.354301
0.331654
0.284064
0.205173
0.0857435
0.0305555
0.0121696
0.00978315
0.00864259
0.00833041
0.00818872
0.0080954
0.00811715
0.00828226
0.00826214
0.00825295
0.00830563
0.00823257
0.00822199
0.00826587
0.00822742
0.00814149
0.00809955
0.00804306
0.00794278
0.00790875
0.00785778
0.00791847
0.0079723
0.00830048
0.0112043
0.00459883
0.00467083
0.0105657
0.00839662
0.00824176
0.00824111
0.00827329
0.0082423
0.00824444
0.00824515
0.00828009
0.00825032
0.00822141
0.00825933
0.0082746
0.00819906
0.00804537
0.00796054
0.00796396
0.00827952
0.00838848
0.0093154
0.0119454
0.0124782
0.0158425
0.0178136
0.0220233
0.0423785
0.125224
0.24154
0.322614
0.38429
0.41904
0.425103
0.403966
0.358178
0.290135
0.181626
0.0649098
0.0224446
0.0107475
0.00909274
0.00838999
0.00818736
0.00820585
0.00816222
0.00824366
0.00829657
0.00832049
0.00827272
0.00829211
0.00821314
0.00825283
0.00814291
0.00809368
0.0080496
0.00806478
0.00798607
0.00790547
0.0078572
0.00786982
0.00786099
0.00816805
0.0112058
0.00459532
0.00466548
0.0105665
0.00839658
0.00821053
0.00820822
0.00824018
0.0082099
0.00821037
0.00821202
0.00827951
0.00824829
0.00822033
0.00822167
0.00822878
0.00813506
0.00804133
0.00800765
0.00801474
0.00831348
0.00816134
0.00890095
0.0115719
0.0115809
0.0171735
0.0166091
0.0309221
0.07201
0.19231
0.290552
0.369327
0.430002
0.466901
0.474792
0.453737
0.408716
0.339659
0.244372
0.100275
0.0366672
0.0120742
0.00921148
0.0085845
0.00827558
0.0081292
0.00819035
0.00830202
0.00829854
0.00828621
0.00830529
0.00825723
0.00819965
0.00818864
0.00811727
0.00805248
0.00798652
0.00791341
0.00785431
0.00785606
0.00776539
0.00769832
0.00779355
0.00821746
0.0111996
0.00458514
0.00466087
0.0105495
0.00839835
0.00827362
0.00824048
0.00820856
0.0082423
0.0082106
0.00821124
0.00821571
0.00828173
0.00828517
0.00827988
0.00819741
0.00810517
0.00798908
0.00793214
0.00787085
0.00803543
0.00815774
0.00926519
0.010923
0.0123332
0.0147983
0.0178071
0.0352831
0.0923465
0.225963
0.315839
0.392805
0.454776
0.493856
0.502577
0.480926
0.433128
0.362952
0.271033
0.125981
0.0453393
0.0143062
0.00946423
0.00852814
0.00818374
0.00815816
0.00812693
0.00826555
0.00832751
0.00831711
0.00823933
0.00822333
0.00819789
0.00821181
0.00808134
0.00799854
0.00797663
0.00784974
0.00769795
0.00778867
0.00783155
0.0078262
0.00786019
0.00817252
0.0111887
0.00456797
0.00465961
0.0105424
0.00833736
0.0082098
0.00824047
0.00827227
0.00827344
0.00824211
0.00827538
0.00821482
0.00824567
0.00821709
0.00827804
0.00823311
0.00810407
0.00799036
0.00793431
0.00800597
0.00807112
0.00810679
0.00861431
0.00969703
0.012014
0.0131536
0.0153461
0.0340913
0.0940105
0.22689
0.315737
0.391153
0.451911
0.490956
0.500163
0.478719
0.430822
0.360873
0.268855
0.123415
0.0437763
0.0134871
0.00933722
0.00854405
0.00829087
0.00812995
0.0081772
0.00828929
0.00829069
0.00831388
0.00823888
0.00822515
0.0082017
0.00823441
0.00810481
0.00799368
0.00788256
0.00786578
0.00782834
0.00777399
0.00776479
0.00780367
0.00785235
0.00814669
0.0112155
0.0045588
0.00466966
0.0105795
0.00839806
0.00820972
0.0082711
0.00820789
0.00820883
0.00827448
0.00827601
0.0082134
0.00821526
0.00828307
0.00827974
0.00819064
0.0081156
0.0080389
0.00800042
0.00798345
0.00800104
0.0086693
0.00944134
0.0104961
0.00995325
0.0114642
0.0130888
0.0259609
0.0680642
0.190094
0.290286
0.365995
0.423595
0.459677
0.468014
0.448196
0.402918
0.333916
0.236971
0.094157
0.0332495
0.0115701
0.00895625
0.00843337
0.00825795
0.00818557
0.00825946
0.00828845
0.00831166
0.00824822
0.00826847
0.0082273
0.008212
0.00824574
0.00818736
0.00814709
0.00803213
0.00791825
0.00792327
0.00780283
0.00785344
0.00786514
0.00800084
0.00824865
0.0113744
0.00456312
0.00466101
0.0105642
0.00836795
0.00824158
0.0082071
0.00820784
0.00827259
0.00824252
0.00827437
0.00824558
0.00827814
0.00825085
0.00821807
0.00822546
0.00819206
0.00812158
0.00808802
0.00792701
0.00796393
0.00808629
0.00893337
0.00888239
0.00870822
0.00982539
0.0113965
0.0176268
0.0394033
0.118295
0.240176
0.320831
0.377418
0.409124
0.415544
0.395599
0.350615
0.281254
0.168308
0.0589009
0.0202712
0.0101888
0.00872557
0.00828834
0.00820212
0.00820073
0.00829962
0.00824874
0.00824476
0.00824321
0.00823547
0.00822975
0.00821886
0.00824657
0.00819012
0.00816753
0.00810283
0.00800131
0.00791251
0.00798682
0.00799049
0.00791397
0.00794587
0.00826997
0.0114068
0.00456138
0.00466625
0.0106005
0.00839944
0.0082413
0.00820665
0.00820729
0.00820812
0.00820861
0.00821039
0.00821274
0.0082456
0.00824714
0.00823072
0.00826029
0.00819959
0.00812135
0.00805906
0.00799977
0.00797503
0.00805085
0.00810868
0.00816925
0.00863328
0.00897817
0.0115693
0.0126673
0.0203788
0.0501955
0.149177
0.255132
0.313497
0.342852
0.345455
0.323586
0.276157
0.18747
0.0732634
0.0272348
0.012074
0.00949452
0.00869289
0.00832244
0.00823989
0.00829006
0.00828282
0.00830308
0.00830518
0.00824256
0.00826834
0.00825938
0.0082536
0.00826917
0.0082335
0.00816379
0.00808759
0.00800546
0.007984
0.00796535
0.00802162
0.00798031
0.00802777
0.00832422
0.0112156
0.00455694
0.00466421
0.0106264
0.00837052
0.00827287
0.00823803
0.00820686
0.0082717
0.00824008
0.0082412
0.00824206
0.00827596
0.00821555
0.00827925
0.00820954
0.00824657
0.00812931
0.00810767
0.00800445
0.00800733
0.00821775
0.00802226
0.00801255
0.00819393
0.00859486
0.00984827
0.0112789
0.0134453
0.0229781
0.0543374
0.139723
0.218624
0.255452
0.254672
0.220759
0.154945
0.0700297
0.0290982
0.0135282
0.00981995
0.00895183
0.0084857
0.00827967
0.00828389
0.00828201
0.00826728
0.00830433
0.00830449
0.00826939
0.00826671
0.00829307
0.00828552
0.00827316
0.00825339
0.0082124
0.00812696
0.00807981
0.00800931
0.00799079
0.00805319
0.00803572
0.00805736
0.00844146
0.0112465
0.00455794
0.0046622
0.0106112
0.00834086
0.00820856
0.00827008
0.00823853
0.0082404
0.00820785
0.0082725
0.00827455
0.00821155
0.00824378
0.00821312
0.00821334
0.00823456
0.00821137
0.00813811
0.00807455
0.00804514
0.00802425
0.00809172
0.00804828
0.00805409
0.00828579
0.0100351
0.0101919
0.0113364
0.0132725
0.0221087
0.0456705
0.079715
0.103979
0.103458
0.0823448
0.0529508
0.0256315
0.0134294
0.00998579
0.00899261
0.00855901
0.00835881
0.00827974
0.00826611
0.00827495
0.00826766
0.00823784
0.00823904
0.00823562
0.00829377
0.00824515
0.00828191
0.00827162
0.0081997
0.00820129
0.00813626
0.00811563
0.00807773
0.00803375
0.00806339
0.00806118
0.00811699
0.00842028
0.0111163
0.00455923
0.00465258
0.0106481
0.00834318
0.00827241
0.00823784
0.00827075
0.0082717
0.00824075
0.00820795
0.00827279
0.00827472
0.00824377
0.00824414
0.008243
0.0082352
0.00823909
0.00814065
0.00813051
0.00803132
0.00802481
0.00801429
0.0079749
0.00812503
0.00844209
0.00866571
0.00913751
0.00944128
0.0112424
0.0124642
0.0175374
0.0292187
0.0373305
0.0381269
0.0296891
0.01954
0.0125363
0.00985905
0.00904378
0.00846752
0.00835715
0.00830257
0.00826706
0.0082683
0.00825016
0.00829238
0.0082352
0.00823838
0.00829748
0.00822708
0.00825399
0.00821759
0.0082674
0.00824152
0.00816456
0.00813005
0.00807074
0.00808444
0.00808395
0.00810467
0.0080615
0.00813273
0.00843654
0.0112789
0.00456411
0.00464847
0.0106728
0.00837695
0.00824094
0.00826954
0.00823884
0.00827114
0.00823919
0.00827178
0.00827363
0.00824067
0.00824321
0.00821228
0.00821479
0.00821868
0.00825412
0.00819835
0.00814117
0.00814814
0.00807692
0.00807578
0.00804967
0.00810925
0.00814111
0.00813057
0.00853987
0.00913556
0.00998065
0.00974595
0.0104956
0.0122404
0.0135904
0.0145138
0.0122917
0.010928
0.00944812
0.00880909
0.00847197
0.00836871
0.00822539
0.00823951
0.00819599
0.00825134
0.00825436
0.00829647
0.00826928
0.00826576
0.00829224
0.0082863
0.00828166
0.00827881
0.00825935
0.00819105
0.00817268
0.00818895
0.00811618
0.00814894
0.00808981
0.0080979
0.00807972
0.00812158
0.00839429
0.0112161
0.0045652
0.00464088
0.0107084
0.0083562
0.0082412
0.00823705
0.00826961
0.00827057
0.00827092
0.00827135
0.00827226
0.00824083
0.00824289
0.00821094
0.00821346
0.00824412
0.00824442
0.00824644
0.0081993
0.00818882
0.00817363
0.00813949
0.00806728
0.0080854
0.00807061
0.00816576
0.00832726
0.00871477
0.00866667
0.00889475
0.00886124
0.00900752
0.00930786
0.00943816
0.00927064
0.00908161
0.00866953
0.00837585
0.00826445
0.00825391
0.00822844
0.00817906
0.00819651
0.00820779
0.00825794
0.00829432
0.00826438
0.00826217
0.00822816
0.00828713
0.00828185
0.0082781
0.00823
0.00818434
0.00817686
0.00815967
0.00816352
0.00814401
0.00815531
0.00811244
0.00811658
0.00818658
0.00840587
0.0113609
0.00455888
0.004607
0.0108443
0.00840586
0.00827292
0.0082365
0.00823675
0.00823895
0.00827055
0.00827082
0.00823883
0.00824026
0.00827305
0.00827685
0.00827558
0.00827486
0.00821185
0.00826187
0.00819295
0.00817962
0.00815315
0.00812875
0.00813453
0.00809333
0.00808454
0.00810989
0.00812177
0.00827382
0.00838524
0.00830755
0.00826107
0.00817402
0.00841045
0.00856238
0.00838366
0.00834018
0.00834494
0.00817517
0.00820019
0.0082855
0.00817274
0.00818432
0.00824015
0.00821825
0.00826068
0.00826427
0.00829286
0.00825849
0.00822474
0.00824856
0.00827845
0.0082445
0.00826098
0.00819359
0.00816582
0.00816868
0.00814725
0.00812346
0.00814934
0.00816376
0.00816155
0.00813863
0.00842368
0.0114949
0.00454327
0.00457466
0.0110046
0.0084011
0.00824241
0.00826853
0.00823798
0.00823732
0.00823746
0.0082394
0.00820764
0.00824019
0.00820905
0.00827308
0.00821289
0.00824381
0.00824359
0.00822068
0.00818099
0.00818597
0.00816724
0.00814287
0.00812217
0.00805986
0.00816185
0.00814277
0.00815662
0.00801331
0.00809273
0.00815094
0.00813576
0.00804878
0.00811959
0.00822684
0.00813332
0.00813151
0.00816153
0.00812529
0.00816382
0.00819906
0.00820309
0.00824137
0.00822731
0.00822568
0.0082611
0.00823207
0.00825972
0.00825749
0.00825477
0.00828048
0.00821404
0.00825712