/*--------------------------------*- C++ -*----------------------------------*\
  =========                 |
  \\      /  F ield         | OpenFOAM: The Open Source CFD Toolbox
   \\    /   O peration     | Website:  https://openfoam.org
    \\  /    A nd           | Version:  11
     \\/     M anipulation  |
\*---------------------------------------------------------------------------*/
FoamFile
{
    format      ascii;
    class       volScalarField;
    location    "100";
    object      omega;
}
// * * * * * * * * * * * * * * * * * * * * * * * * * * * * * * * * * * * * * //

dimensions      [0 0 -1 0 0 0 0];

internalField   nonuniform List<scalar> 
272944
(
0.17515
0.192271
0.187339
0.186701
0.186926
0.187078
0.187146
0.187372
0.187626
0.188064
0.188379
0.188716
0.189085
0.189347
0.18995
0.190297
0.190974
0.191427
0.19206
0.192897
0.193492
0.194266
0.195165
0.195804
0.195997
0.1961
0.196177
0.19637
0.196418
0.196435
0.196322
0.196169
0.196143
0.196409
0.19623
0.196197
0.196128
0.196198
0.196106
0.195855
0.195516
0.194996
0.194232
0.193452
0.192709
0.192012
0.191369
0.190775
0.190228
0.189605
0.189156
0.188738
0.188367
0.188162
0.187849
0.187576
0.187306
0.187095
0.186807
0.186598
0.186527
0.187214
0.192137
0.174925
0.197734
0.135187
0.125853
0.123509
0.123536
0.123382
0.123127
0.122632
0.122682
0.122145
0.122183
0.121597
0.121601
0.120977
0.120642
0.1206
0.120226
0.119832
0.119419
0.118993
0.118557
0.117816
0.117425
0.117438
0.117296
0.11727
0.117261
0.117261
0.116929
0.116944
0.117241
0.116944
0.116945
0.116918
0.116941
0.116931
0.116938
0.117261
0.116946
0.116975
0.117446
0.11743
0.117824
0.118568
0.119001
0.119105
0.119821
0.119888
0.120562
0.12059
0.120919
0.121222
0.121827
0.121781
0.122351
0.122573
0.122509
0.122692
0.122944
0.123089
0.123675
0.125404
0.134699
0.197473
0.19186
0.123386
0.113016
0.111351
0.110833
0.110777
0.110695
0.111022
0.110554
0.110872
0.11079
0.110707
0.110224
0.110523
0.110029
0.109926
0.110209
0.110095
0.109976
0.109854
0.109337
0.109621
0.109521
0.10905
0.109419
0.109017
0.109019
0.109423
0.109024
0.109429
0.109429
0.109446
0.109045
0.109024
0.109024
0.109421
0.109019
0.109415
0.109013
0.109015
0.109047
0.10912
0.109221
0.109336
0.109454
0.109972
0.110085
0.110196
0.110302
0.110403
0.110501
0.110586
0.110282
0.110358
0.110437
0.110894
0.110579
0.111025
0.110712
0.111148
0.111271
0.112904
0.123438
0.191602
0.190491
0.120662
0.110061
0.108936
0.108469
0.10886
0.108433
0.10883
0.108818
0.108814
0.108806
0.108802
0.108392
0.108393
0.1088
0.108396
0.1084
0.108405
0.108413
0.108827
0.108431
0.108849
0.108456
0.108469
0.108891
0.108498
0.108917
0.108928
0.108528
0.108534
0.108946
0.108539
0.108538
0.108536
0.108532
0.108934
0.108925
0.108915
0.108496
0.108483
0.108471
0.108863
0.108849
0.108432
0.108823
0.108812
0.1084
0.108794
0.108382
0.108377
0.108776
0.108371
0.108772
0.108368
0.108774
0.108774
0.108782
0.108784
0.108398
0.108406
0.108868
0.110351
0.120104
0.190382
0.192643
0.118925
0.110003
0.10842
0.108357
0.108753
0.10833
0.108327
0.108319
0.108723
0.10872
0.108722
0.108722
0.108322
0.108732
0.108335
0.108749
0.108352
0.108769
0.108377
0.10839
0.108407
0.108423
0.108847
0.108459
0.10888
0.108896
0.108908
0.108919
0.108519
0.108525
0.108934
0.108527
0.108523
0.108519
0.108918
0.108503
0.108896
0.108477
0.108867
0.108851
0.108835
0.108818
0.108395
0.10838
0.108363
0.108349
0.108337
0.108727
0.108313
0.108708
0.108699
0.108694
0.108685
0.108282
0.108681
0.108283
0.108683
0.108293
0.108698
0.108755
0.109897
0.118981
0.192416
0.190787
0.120092
0.110279
0.108419
0.108754
0.108739
0.108316
0.108718
0.108305
0.108709
0.108302
0.108708
0.108306
0.108714
0.108316
0.10873
0.10874
0.108344
0.108357
0.108372
0.108796
0.108815
0.108835
0.108451
0.108877
0.108489
0.108507
0.108523
0.108538
0.108956
0.108554
0.108555
0.108555
0.108554
0.108551
0.10895
0.108937
0.108517
0.108907
0.108485
0.108872
0.108447
0.108832
0.108408
0.108389
0.108371
0.108758
0.108743
0.108326
0.108715
0.108302
0.108694
0.108285
0.10868
0.108676
0.108269
0.108675
0.108272
0.108685
0.108693
0.108757
0.109791
0.120156
0.19072
0.18786
0.121911
0.110412
0.108827
0.108739
0.108723
0.1083
0.108704
0.108697
0.108289
0.108286
0.10829
0.108698
0.108298
0.108709
0.108316
0.108732
0.108745
0.108761
0.108372
0.108799
0.108822
0.108847
0.108871
0.108894
0.108919
0.108942
0.108962
0.108571
0.108993
0.109001
0.108596
0.108597
0.108596
0.108998
0.108582
0.108974
0.108957
0.10853
0.108511
0.108896
0.108468
0.108851
0.108827
0.108806
0.108379
0.10836
0.108746
0.108728
0.108312
0.1087
0.108688
0.108679
0.108267
0.108666
0.108256
0.108259
0.108257
0.108271
0.108276
0.108361
0.110707
0.121685
0.187837
0.187518
0.122282
0.110523
0.108828
0.108733
0.108313
0.108703
0.108295
0.10869
0.108286
0.108689
0.108692
0.108291
0.108296
0.10871
0.108722
0.108734
0.108345
0.108766
0.108381
0.108407
0.108841
0.108869
0.108899
0.108523
0.10896
0.10858
0.108606
0.108626
0.109052
0.109063
0.108661
0.109073
0.10907
0.108656
0.109051
0.108627
0.108608
0.108584
0.108561
0.108535
0.108507
0.108889
0.108861
0.108429
0.108406
0.108787
0.108361
0.108342
0.108727
0.10831
0.108699
0.108685
0.108271
0.108265
0.108663
0.108261
0.108661
0.108269
0.108275
0.108766
0.110437
0.122354
0.187489
0.18778
0.122209
0.110499
0.108818
0.108321
0.108304
0.108292
0.108286
0.108683
0.108685
0.108683
0.108283
0.108692
0.1087
0.108304
0.108317
0.108736
0.108754
0.108369
0.108392
0.108423
0.108861
0.108895
0.108933
0.108563
0.109009
0.108635
0.109075
0.109101
0.108713
0.109137
0.108734
0.10874
0.109147
0.108729
0.108716
0.108697
0.109082
0.108647
0.109026
0.108995
0.108554
0.108523
0.108491
0.10846
0.108836
0.108809
0.10878
0.108757
0.108333
0.108717
0.108296
0.108284
0.108674
0.108263
0.108256
0.108258
0.108254
0.108667
0.108671
0.108356
0.110792
0.121996
0.187582
0.188007
0.122357
0.110841
0.108812
0.108725
0.108306
0.108696
0.108287
0.108279
0.10828
0.108282
0.108285
0.10829
0.108298
0.108308
0.108727
0.108744
0.108764
0.108787
0.108818
0.108852
0.108891
0.108934
0.108573
0.108617
0.108665
0.109115
0.108745
0.108781
0.108806
0.108822
0.108834
0.109249
0.10884
0.10883
0.108814
0.108792
0.109173
0.108731
0.109105
0.109068
0.10903
0.108989
0.108544
0.108508
0.108877
0.108439
0.108409
0.10838
0.108352
0.108332
0.108715
0.108296
0.108283
0.108677
0.108263
0.108667
0.108662
0.10867
0.108271
0.108356
0.110748
0.122126
0.18779
0.188291
0.122133
0.110772
0.108808
0.108724
0.108305
0.108694
0.108287
0.108684
0.108284
0.108688
0.108288
0.108293
0.108301
0.108311
0.10833
0.108347
0.108371
0.108397
0.10884
0.108875
0.108524
0.108574
0.109027
0.108676
0.10915
0.109203
0.10884
0.109302
0.108915
0.108938
0.109366
0.108962
0.109372
0.109363
0.108932
0.109314
0.109279
0.108829
0.108787
0.108742
0.108695
0.10865
0.10901
0.108965
0.108923
0.108884
0.108846
0.108813
0.108785
0.108757
0.108732
0.108308
0.108292
0.108684
0.108267
0.108673
0.108662
0.108672
0.108675
0.10875
0.110681
0.121602
0.187988
0.188471
0.121888
0.110699
0.1084
0.108726
0.108712
0.108699
0.108696
0.108287
0.108693
0.108291
0.108295
0.108706
0.10831
0.108324
0.108339
0.108358
0.108383
0.108416
0.108455
0.108908
0.108964
0.109021
0.109086
0.109157
0.109233
0.108883
0.109371
0.109409
0.109063
0.109494
0.109514
0.109114
0.10911
0.109099
0.109488
0.109041
0.108999
0.109361
0.108899
0.109253
0.108786
0.109139
0.109085
0.108628
0.108981
0.108933
0.108485
0.108446
0.108817
0.108782
0.108351
0.108734
0.108712
0.108294
0.108282
0.108681
0.108673
0.108275
0.108681
0.108355
0.110603
0.121634
0.188209
0.188976
0.121616
0.110615
0.108401
0.108728
0.108311
0.108703
0.108296
0.108293
0.108702
0.108703
0.108306
0.108718
0.108325
0.10874
0.108354
0.108778
0.108799
0.108841
0.108481
0.108533
0.108998
0.109081
0.109172
0.109251
0.109353
0.109038
0.109092
0.109177
0.109225
0.109267
0.10928
0.109287
0.109703
0.109276
0.109662
0.109201
0.109151
0.109504
0.109031
0.109372
0.108893
0.109234
0.108762
0.109104
0.108636
0.108583
0.108938
0.108888
0.108442
0.108407
0.108369
0.10835
0.10873
0.108309
0.108698
0.108692
0.108682
0.108281
0.108283
0.108757
0.11014
0.121061
0.188588
0.189243
0.120992
0.110527
0.108806
0.108734
0.108722
0.108305
0.108305
0.108707
0.108309
0.108714
0.108319
0.10873
0.108337
0.10835
0.108772
0.108792
0.108826
0.108861
0.108915
0.108963
0.109048
0.108748
0.108843
0.109355
0.10947
0.109168
0.109255
0.10976
0.109842
0.109865
0.10992
0.1095
0.109507
0.109492
0.109875
0.109402
0.109751
0.109264
0.109599
0.109516
0.109021
0.109349
0.10927
0.109193
0.109118
0.109053
0.108996
0.108538
0.108887
0.108439
0.108404
0.108781
0.108752
0.108735
0.108715
0.108706
0.108292
0.108294
0.108295
0.108765
0.110436
0.121032
0.189061
0.18984
0.12066
0.110036
0.108403
0.108742
0.108731
0.10872
0.108721
0.10872
0.108726
0.108731
0.108741
0.10875
0.108361
0.108777
0.108396
0.108823
0.108454
0.108498
0.10894
0.108594
0.109074
0.108783
0.109292
0.109435
0.109171
0.109709
0.109413
0.109951
0.110047
0.109691
0.109771
0.109783
0.110211
0.110177
0.109695
0.110052
0.10956
0.10988
0.109368
0.109684
0.10958
0.109069
0.109382
0.109291
0.108799
0.109126
0.109057
0.108995
0.108533
0.108883
0.108437
0.108405
0.108367
0.10835
0.108733
0.108316
0.108306
0.108715
0.10871
0.108371
0.109953
0.120389
0.189372
0.1902
0.120309
0.109934
0.108813
0.10875
0.108334
0.108731
0.108328
0.108329
0.108337
0.108346
0.108761
0.108369
0.10878
0.108402
0.108826
0.108451
0.108468
0.108529
0.108562
0.108995
0.108679
0.10877
0.108903
0.109436
0.109576
0.109745
0.109918
0.110043
0.110192
0.109855
0.109949
0.110016
0.110483
0.110474
0.109995
0.109901
0.11023
0.109706
0.109579
0.10946
0.109756
0.109212
0.109105
0.108996
0.108895
0.109212
0.109129
0.109053
0.108583
0.108529
0.108883
0.108841
0.108401
0.108375
0.108756
0.108338
0.108729
0.108327
0.108326
0.108786
0.109853
0.120023
0.189885
0.190895
0.119949
0.109828
0.108818
0.108353
0.108345
0.108745
0.108343
0.108753
0.10836
0.108774
0.108789
0.1088
0.10882
0.10884
0.108866
0.108474
0.108511
0.108566
0.108947
0.108953
0.109015
0.108731
0.108791
0.109325
0.109508
0.109358
0.109952
0.109711
0.109848
0.109998
0.110491
0.110588
0.110692
0.110331
0.11074
0.110246
0.110556
0.109982
0.109837
0.109678
0.109535
0.109806
0.109663
0.109529
0.109
0.109306
0.109207
0.109118
0.108638
0.108979
0.108922
0.108469
0.108836
0.108401
0.108779
0.108765
0.108749
0.108754
0.108747
0.108801
0.110134
0.119777
0.190462
0.191347
0.119875
0.110112
0.108418
0.108364
0.108764
0.108356
0.10836
0.108369
0.108785
0.108398
0.108822
0.108431
0.108861
0.10848
0.108916
0.108537
0.108955
0.108546
0.10853
0.108849
0.108563
0.108594
0.108697
0.109157
0.109123
0.109392
0.109929
0.109747
0.109892
0.110126
0.110623
0.110772
0.110499
0.110959
0.110613
0.110602
0.110917
0.110289
0.110133
0.109948
0.110177
0.109999
0.109826
0.109269
0.109121
0.109408
0.109291
0.108788
0.1087
0.10903
0.108565
0.108509
0.108462
0.108837
0.1084
0.108384
0.108367
0.108777
0.108767
0.108818
0.110018
0.119298
0.190923
0.19198
0.11915
0.109598
0.108832
0.108378
0.10878
0.108779
0.108383
0.108391
0.108412
0.108837
0.108865
0.108477
0.108503
0.108547
0.108978
0.109
0.10898
0.108533
0.10883
0.108741
0.108432
0.108763
0.108916
0.109107
0.10913
0.109737
0.109999
0.109914
0.110087
0.110315
0.110837
0.111034
0.111114
0.111187
0.111288
0.111315
0.110841
0.110676
0.110446
0.110662
0.11044
0.110232
0.109602
0.109838
0.109253
0.109517
0.109386
0.109275
0.109169
0.108683
0.109012
0.108955
0.108499
0.10887
0.108835
0.108815
0.10839
0.1088
0.108788
0.108832
0.109892
0.11898
0.191577
0.192812
0.119045
0.109477
0.108436
0.108391
0.108797
0.108798
0.108812
0.108422
0.108851
0.108876
0.108505
0.108535
0.108567
0.109029
0.109059
0.109051
0.109017
0.108571
0.108466
0.108694
0.108416
0.108531
0.10897
0.10896
0.109247
0.109603
0.110207
0.110233
0.110473
0.111046
0.11127
0.11143
0.111104
0.111517
0.11157
0.111587
0.111158
0.111421
0.11082
0.11057
0.110736
0.110484
0.110228
0.110006
0.109812
0.109231
0.109488
0.109359
0.109245
0.109146
0.108659
0.109
0.108938
0.108495
0.108459
0.108437
0.108414
0.108416
0.10881
0.108441
0.109377
0.118236
0.192158
0.193584
0.118622
0.109358
0.108444
0.108813
0.108814
0.108819
0.108838
0.108858
0.108889
0.108516
0.108956
0.109013
0.109077
0.108718
0.108753
0.109146
0.108699
0.1086
0.108735
0.10867
0.108746
0.108925
0.108918
0.109205
0.109527
0.109894
0.110618
0.111082
0.111103
0.111402
0.111629
0.112086
0.112098
0.112087
0.111674
0.111984
0.11151
0.111708
0.111558
0.110935
0.111047
0.110341
0.11046
0.110192
0.109551
0.109354
0.109593
0.109452
0.10932
0.108809
0.10871
0.108636
0.10898
0.108528
0.108897
0.108465
0.10844
0.10844
0.108421
0.108455
0.109245
0.11773
0.192771
0.194219
0.117876
0.109242
0.108455
0.108422
0.108831
0.108841
0.108865
0.108484
0.108928
0.108563
0.108616
0.108683
0.108729
0.109223
0.109269
0.109256
0.109101
0.108915
0.108825
0.108569
0.108671
0.109083
0.109128
0.10947
0.109899
0.110634
0.111262
0.111844
0.112317
0.11233
0.112635
0.113075
0.112666
0.112615
0.112482
0.112592
0.111929
0.112019
0.111818
0.111225
0.111384
0.111059
0.110729
0.110403
0.110138
0.109493
0.109288
0.109127
0.108982
0.109276
0.109175
0.108684
0.10902
0.108563
0.108935
0.108496
0.10888
0.108464
0.108852
0.108875
0.109501
0.117465
0.193435
0.194983
0.117803
0.109141
0.108467
0.108843
0.108444
0.108454
0.108892
0.108924
0.108971
0.109022
0.108674
0.108737
0.109245
0.109347
0.109408
0.109365
0.108891
0.108764
0.108791
0.10877
0.109107
0.109299
0.109653
0.110121
0.110672
0.111096
0.111913
0.113046
0.113798
0.114503
0.114644
0.115062
0.114377
0.114373
0.113553
0.113464
0.112926
0.112084
0.111764
0.111849
0.111613
0.110929
0.111009
0.110241
0.109914
0.109627
0.109416
0.109226
0.109061
0.108925
0.108822
0.109131
0.108655
0.109009
0.108964
0.108528
0.108494
0.108897
0.108864
0.108476
0.108992
0.116977
0.194055
0.195784
0.117096
0.109049
0.108477
0.10845
0.108869
0.108479
0.10892
0.108551
0.109013
0.108667
0.108742
0.109247
0.109348
0.109064
0.109162
0.109546
0.109054
0.1092
0.109177
0.108972
0.109136
0.109649
0.110115
0.110704
0.111194
0.1121
0.113596
0.114876
0.116623
0.118218
0.119623
0.119544
0.118886
0.117367
0.115887
0.114349
0.113451
0.11273
0.112525
0.112076
0.111401
0.111557
0.110827
0.110439
0.110086
0.110194
0.109947
0.109726
0.109546
0.109395
0.109276
0.109179
0.108686
0.108634
0.108589
0.108972
0.10852
0.108907
0.108862
0.108886
0.109255
0.116478
0.194642
0.196035
0.117312
0.109427
0.108489
0.108463
0.108478
0.108905
0.108535
0.108987
0.10905
0.108717
0.10922
0.109344
0.109067
0.109613
0.109335
0.109755
0.109653
0.10909
0.109405
0.109549
0.109555
0.110176
0.110727
0.111479
0.112511
0.113934
0.116307
0.119937
0.124153
0.128807
0.131035
0.130921
0.127731
0.12344
0.120079
0.117188
0.115213
0.113657
0.11275
0.112469
0.111655
0.11135
0.111411
0.110674
0.110717
0.110355
0.110048
0.109417
0.10962
0.109465
0.10893
0.108826
0.109128
0.108665
0.109031
0.108998
0.108538
0.10891
0.108445
0.108468
0.108811
0.11605
0.194793
0.196137
0.117273
0.109421
0.1085
0.108477
0.108902
0.108925
0.108558
0.10861
0.108679
0.109172
0.109276
0.108997
0.109167
0.109292
0.109482
0.10956
0.109863
0.109724
0.109783
0.109942
0.10997
0.110755
0.111503
0.112296
0.113835
0.116552
0.120919
0.128128
0.142834
0.165032
0.179231
0.178554
0.16253
0.142904
0.12805
0.12167
0.117838
0.115355
0.113961
0.112712
0.112091
0.111573
0.111549
0.111228
0.110876
0.1105
0.110189
0.109918
0.109703
0.109521
0.109382
0.109275
0.109159
0.10869
0.109049
0.108602
0.108955
0.108901
0.108431
0.108457
0.109148
0.115935
0.194781
0.196201
0.116941
0.109019
0.108509
0.108487
0.108508
0.108941
0.10858
0.109044
0.109123
0.108804
0.108918
0.109464
0.109225
0.109808
0.109989
0.110087
0.110049
0.109946
0.110017
0.110244
0.11067
0.111123
0.112393
0.113648
0.116505
0.121369
0.130659
0.157338
0.207066
0.227716
0.229145
0.230153
0.229358
0.206414
0.156822
0.130433
0.121884
0.117282
0.115043
0.113326
0.11249
0.111792
0.111309
0.110939
0.11101
0.110622
0.110284
0.109991
0.109361
0.109555
0.109411
0.108887
0.108791
0.108712
0.109058
0.109011
0.108536
0.108468
0.108406
0.108832
0.109079
0.115836
0.194734
0.196245
0.116941
0.10902
0.108517
0.108496
0.108926
0.108956
0.109006
0.10866
0.10915
0.109249
0.108961
0.1091
0.109311
0.109517
0.110105
0.110219
0.110234
0.110231
0.110335
0.110608
0.111127
0.11172
0.113071
0.115698
0.121153
0.129646
0.159339
0.220981
0.237631
0.232272
0.227201
0.22912
0.237615
0.243275
0.227264
0.163124
0.130305
0.121236
0.116781
0.114453
0.11292
0.112502
0.111577
0.111135
0.111151
0.110315
0.110368
0.110074
0.109411
0.109615
0.109452
0.109316
0.1088
0.109111
0.108615
0.108931
0.108463
0.1088
0.10834
0.108373
0.108614
0.115882
0.194701
0.196428
0.117254
0.10902
0.108522
0.108502
0.108525
0.108557
0.109019
0.109083
0.108759
0.108862
0.109407
0.109167
0.109732
0.109543
0.109756
0.110278
0.110323
0.110075
0.110578
0.110916
0.111563
0.112633
0.114348
0.119364
0.12701
0.153415
0.217094
0.238045
0.232654
0.220433
0.212604
0.214877
0.226406
0.240393
0.246505
0.227717
0.156769
0.127291
0.119051
0.1155
0.11374
0.112419
0.111784
0.111292
0.110855
0.110826
0.11044
0.10972
0.109865
0.109655
0.109073
0.108921
0.109178
0.108659
0.108936
0.10883
0.108739
0.108718
0.108659
0.108644
0.108474
0.115566
0.194684
0.196289
0.116947
0.109021
0.108526
0.108914
0.108531
0.108564
0.109027
0.109094
0.108771
0.108878
0.10943
0.109578
0.109355
0.109581
0.110186
0.109908
0.110342
0.110155
0.110415
0.110874
0.111951
0.113301
0.116073
0.123227
0.138921
0.197683
0.235929
0.231507
0.215713
0.198713
0.1897
0.191356
0.204119
0.224687
0.241136
0.244662
0.206409
0.141307
0.122247
0.116765
0.114107
0.11298
0.111912
0.111419
0.110945
0.11048
0.11008
0.109756
0.109495
0.10968
0.109087
0.109313
0.108756
0.108634
0.1085
0.10878
0.10832
0.108301
0.108235
0.108549
0.10873
0.115609
0.194623
0.196453
0.116922
0.109018
0.108934
0.108916
0.108534
0.108974
0.109028
0.109095
0.108777
0.108886
0.109434
0.109608
0.109802
0.109588
0.110152
0.110253
0.110006
0.110209
0.110855
0.111083
0.112272
0.113626
0.118286
0.126437
0.157141
0.222483
0.229801
0.216888
0.196448
0.179936
0.170263
0.170653
0.182716
0.204016
0.228007
0.240045
0.230117
0.157402
0.125604
0.118024
0.114192
0.112796
0.112453
0.111541
0.111018
0.110529
0.110522
0.109786
0.109918
0.10969
0.109485
0.109296
0.109132
0.10899
0.108852
0.108736
0.108279
0.10825
0.108605
0.108541
0.108419
0.115487
0.194353
0.196149
0.116938
0.109035
0.108525
0.108916
0.108938
0.108971
0.109027
0.109092
0.109182
0.108883
0.109001
0.109181
0.109788
0.109572
0.110114
0.110245
0.110386
0.110595
0.110937
0.111164
0.112393
0.114371
0.11904
0.130156
0.172424
0.225222
0.222712
0.206059
0.184468
0.167846
0.15782
0.157397
0.168867
0.190676
0.217366
0.233325
0.233518
0.167941
0.127466
0.118572
0.11455
0.113327
0.112544
0.111996
0.111452
0.110533
0.110124
0.110194
0.109917
0.109684
0.109074
0.109284
0.109105
0.108583
0.108457
0.108314
0.108228
0.108234
0.108192
0.108585
0.108506
0.115535
0.193999
0.196139
0.117269
0.109437
0.10893
0.108913
0.108529
0.10856
0.108614
0.108678
0.109173
0.108874
0.109421
0.109171
0.109351
0.109548
0.110091
0.109852
0.110357
0.110584
0.110955
0.111542
0.112156
0.114102
0.118585
0.12998
0.171664
0.225364
0.223317
0.206113
0.182957
0.165341
0.155167
0.155147
0.167264
0.189828
0.217223
0.23346
0.233391
0.166761
0.127166
0.118478
0.114517
0.112957
0.112557
0.111584
0.111427
0.110518
0.110114
0.110186
0.109915
0.109689
0.109084
0.109298
0.109137
0.108999
0.108481
0.10838
0.108686
0.108683
0.108639
0.108644
0.108847
0.115188
0.193745
0.196301
0.116895
0.109016
0.108928
0.108502
0.108931
0.108962
0.108605
0.108666
0.109158
0.109251
0.108971
0.109141
0.109729
0.109918
0.11006
0.110172
0.10997
0.110211
0.11095
0.111568
0.112169
0.113846
0.118405
0.125984
0.155574
0.222432
0.231683
0.217246
0.193456
0.174445
0.164225
0.165495
0.179141
0.202303
0.227833
0.240369
0.22765
0.154299
0.124871
0.117774
0.114608
0.112893
0.112168
0.111535
0.111355
0.110466
0.11048
0.109756
0.109894
0.109677
0.109084
0.108917
0.108768
0.108626
0.108893
0.108779
0.108688
0.108652
0.10822
0.108205
0.108359
0.11493
0.193742
0.196406
0.117249
0.109418
0.108924
0.108902
0.108923
0.108547
0.109002
0.108655
0.10914
0.108837
0.109357
0.109505
0.109682
0.109456
0.10962
0.109794
0.109947
0.110175
0.110895
0.11148
0.112049
0.113406
0.116953
0.122743
0.139258
0.194123
0.237694
0.233132
0.214466
0.194494
0.18444
0.186654
0.200975
0.22369
0.241175
0.244441
0.199281
0.138271
0.121611
0.116621
0.113796
0.112749
0.112417
0.111799
0.111253
0.110811
0.110437
0.110125
0.109857
0.109648
0.109069
0.109321
0.108779
0.108646
0.108506
0.108774
0.108285
0.108251
0.108566
0.108542
0.108558
0.114888
0.19371
0.196245
0.116916
0.109013
0.108916
0.108894
0.108913
0.10894
0.108986
0.109042
0.109113
0.109209
0.109331
0.109454
0.109206
0.109384
0.109562
0.109737
0.11027
0.110153
0.11083
0.111373
0.112186
0.113317
0.11499
0.120253
0.126843
0.148584
0.211565
0.240287
0.233845
0.21974
0.21094
0.212963
0.225064
0.239984
0.246125
0.219604
0.149784
0.125617
0.119092
0.115046
0.113828
0.112534
0.11183
0.111641
0.110711
0.110302
0.110352
0.110055
0.109407
0.109609
0.109033
0.108896
0.109169
0.109033
0.108905
0.108795
0.108701
0.108281
0.108212
0.10856
0.108545
0.114891
0.193601
0.196186
0.116942
0.109412
0.108501
0.108477
0.108901
0.108519
0.108561
0.108612
0.108678
0.108767
0.109269
0.108996
0.109549
0.109315
0.109875
0.109648
0.110175
0.110398
0.110743
0.111248
0.111939
0.112583
0.113933
0.116547
0.121501
0.129068
0.151422
0.213558
0.239112
0.233548
0.227522
0.228965
0.237263
0.242052
0.216418
0.153421
0.127721
0.120677
0.116274
0.114181
0.113415
0.112229
0.111581
0.111029
0.110568
0.110185
0.109857
0.109976
0.10934
0.109147
0.108989
0.108859
0.108731
0.109001
0.108872
0.108786
0.108712
0.108271
0.108205
0.108538
0.108228
0.114957
0.193604
0.196127
0.117282
0.109411
0.108897
0.108466
0.108481
0.108909
0.108949
0.10859
0.10865
0.109137
0.108831
0.109341
0.109477
0.109231
0.109403
0.109565
0.109749
0.110011
0.110683
0.110792
0.111708
0.112497
0.113557
0.114753
0.117715
0.122328
0.128462
0.149186
0.196299
0.224144
0.22882
0.229034
0.222147
0.193335
0.147964
0.127851
0.120615
0.117297
0.115152
0.113966
0.113042
0.112293
0.111311
0.110823
0.110814
0.110456
0.110151
0.109489
0.109669
0.10909
0.108939
0.10921
0.108681
0.108955
0.108836
0.108755
0.108671
0.108239
0.108537
0.10814
0.108234
0.115003
0.193616
0.196187
0.116985
0.109411
0.108482
0.108454
0.108468
0.108486
0.108928
0.108972
0.108622
0.108688
0.108772
0.109279
0.109402
0.109548
0.10931
0.109849
0.109683
0.110272
0.110561
0.110946
0.11145
0.111761
0.112563
0.113641
0.11545
0.117817
0.121243
0.127682
0.138722
0.154802
0.165545
0.163692
0.151901
0.136834
0.125755
0.120351
0.117026
0.115431
0.113889
0.112976
0.112241
0.111586
0.111446
0.110604
0.110634
0.110312
0.109636
0.109798
0.109595
0.109426
0.108882
0.108754
0.109024
0.108899
0.108797
0.108727
0.108652
0.108231
0.108518
0.108091
0.108282
0.115163
0.193743
0.196082
0.11703
0.109417
0.108877
0.108443
0.10886
0.108468
0.108501
0.10854
0.108593
0.10866
0.109139
0.109224
0.109327
0.109459
0.109213
0.109752
0.109922
0.109768
0.110398
0.110734
0.11117
0.111663
0.111988
0.112759
0.11373
0.114919
0.116832
0.119973
0.123286
0.126473
0.128226
0.127449
0.125214
0.12219
0.118995
0.116365
0.114852
0.114001
0.113532
0.11274
0.112157
0.111243
0.110788
0.11039
0.110451
0.109764
0.109518
0.109292
0.109109
0.108955
0.108821
0.109099
0.108976
0.108464
0.108749
0.108306
0.108603
0.108558
0.108485
0.108426
0.108296
0.115368
0.193781
0.195608
0.117515
0.109452
0.108866
0.10843
0.108439
0.108453
0.108481
0.108515
0.108561
0.109025
0.109097
0.109175
0.109266
0.108974
0.10911
0.109262
0.109804
0.109616
0.109843
0.110479
0.110832
0.11093
0.111443
0.112005
0.1127
0.113495
0.114296
0.115432
0.11691
0.118681
0.118675
0.118567
0.117865
0.116507
0.11562
0.114286
0.11366
0.113109
0.112408
0.112187
0.111731
0.111311
0.110525
0.110165
0.109878
0.110028
0.109795
0.109194
0.109026
0.108887
0.10916
0.109042
0.108931
0.108821
0.108344
0.108257
0.108175
0.108521
0.10846
0.108057
0.108709
0.115718
0.193653
0.195109
0.117836
0.10953
0.108452
0.108418
0.108425
0.10884
0.108462
0.108492
0.108535
0.108986
0.108648
0.108716
0.10881
0.108908
0.109414
0.109158
0.109695
0.109846
0.109656
0.109898
0.110198
0.110892
0.110957
0.111386
0.112229
0.1128
0.113332
0.113846
0.114397
0.11491
0.11523
0.114755
0.114816
0.114283
0.113891
0.113525
0.112721
0.112292
0.112142
0.111729
0.110966
0.110992
0.110658
0.109966
0.109705
0.10948
0.109674
0.109095
0.108945
0.108811
0.108696
0.108981
0.108875
0.108389
0.108681
0.108593
0.108522
0.108118
0.108088
0.108408
0.108841
0.116245
0.193308
0.194349
0.118238
0.109634
0.108848
0.108408
0.108817
0.10842
0.108444
0.108875
0.108913
0.108958
0.109016
0.108674
0.109143
0.108838
0.109336
0.109453
0.109584
0.109724
0.109509
0.11006
0.110294
0.11058
0.110568
0.11123
0.111599
0.112007
0.112383
0.112392
0.112704
0.113323
0.113063
0.113414
0.113316
0.113074
0.112881
0.112617
0.112336
0.111991
0.111637
0.110909
0.110998
0.110694
0.110029
0.110165
0.109941
0.10974
0.109553
0.109005
0.109271
0.108752
0.109041
0.10893
0.108832
0.108735
0.108264
0.108571
0.108498
0.108463
0.108055
0.108073
0.108992
0.116742
0.192783
0.19343
0.118343
0.109355
0.108839
0.108395
0.108803
0.108809
0.10883
0.108855
0.108888
0.108926
0.108981
0.109039
0.109103
0.108775
0.109262
0.109367
0.109482
0.109601
0.109746
0.109907
0.109742
0.109965
0.110571
0.110849
0.111143
0.111062
0.111715
0.111608
0.112185
0.112075
0.112518
0.11252
0.112519
0.112331
0.111783
0.111587
0.11175
0.111083
0.110797
0.110529
0.11028
0.110032
0.110187
0.109576
0.109378
0.109605
0.10905
0.108913
0.109195
0.109087
0.108986
0.108886
0.108788
0.108314
0.108231
0.108547
0.108489
0.108448
0.108039
0.108446
0.109193
0.117508
0.192258
0.192684
0.119109
0.109876
0.108425
0.108383
0.108791
0.108794
0.108813
0.108835
0.108865
0.108496
0.108541
0.108594
0.108661
0.109126
0.109194
0.109284
0.10939
0.109492
0.109625
0.109771
0.109914
0.110103
0.109968
0.110193
0.110424
0.110631
0.11087
0.11107
0.111621
0.111807
0.111877
0.111895
0.111487
0.111384
0.111259
0.111472
0.110859
0.111053
0.110431
0.110205
0.1104
0.110186
0.109586
0.109802
0.109238
0.109091
0.109348
0.108827
0.109123
0.109027
0.108935
0.108848
0.108368
0.108295
0.108599
0.108534
0.108483
0.108076
0.108053
0.108458
0.109378
0.117872
0.191726
0.192131
0.119537
0.11
0.108419
0.108777
0.108372
0.108374
0.108795
0.108814
0.108438
0.108874
0.108917
0.108959
0.108613
0.109079
0.108751
0.108821
0.109311
0.109407
0.10913
0.109254
0.109388
0.109543
0.109731
0.109936
0.110148
0.110319
0.110512
0.111045
0.110832
0.111332
0.110973
0.110971
0.110964
0.110874
0.110791
0.110632
0.110459
0.110702
0.11052
0.109927
0.110153
0.109574
0.109393
0.109244
0.1095
0.109374
0.108854
0.109143
0.109061
0.108568
0.108889
0.108416
0.108345
0.108661
0.108586
0.108532
0.108506
0.108472
0.108079
0.108131
0.109571
0.118412
0.191182
0.191344
0.119626
0.11012
0.108818
0.108363
0.108359
0.10836
0.108374
0.108794
0.108416
0.10885
0.108479
0.10852
0.108977
0.109026
0.109096
0.108763
0.108839
0.109331
0.109035
0.109155
0.109658
0.109788
0.109938
0.110115
0.110288
0.11006
0.110602
0.110363
0.110882
0.11054
0.110963
0.110566
0.110941
0.110476
0.110796
0.110678
0.110127
0.109991
0.110229
0.109673
0.109928
0.109772
0.109234
0.109102
0.109377
0.10887
0.109161
0.108683
0.108592
0.108516
0.108853
0.108391
0.108727
0.108657
0.108593
0.108541
0.108502
0.108493
0.108102
0.108532
0.10975
0.119194
0.190696
0.190748
0.120339
0.109839
0.108406
0.108758
0.108755
0.108753
0.10836
0.108778
0.108802
0.108826
0.108453
0.108894
0.108533
0.108983
0.108637
0.108701
0.109178
0.10886
0.109346
0.109447
0.109554
0.109269
0.109397
0.109931
0.110073
0.10981
0.109937
0.110459
0.110555
0.110184
0.110206
0.110611
0.11018
0.110114
0.110026
0.11034
0.110229
0.109702
0.109577
0.109441
0.109321
0.109602
0.109084
0.108972
0.108874
0.109177
0.109089
0.109012
0.108536
0.108473
0.108818
0.108364
0.108708
0.108656
0.108606
0.108179
0.108145
0.108141
0.108143
0.108579
0.10955
0.11967
0.190248
0.190342
0.120709
0.110345
0.108403
0.108343
0.108745
0.108742
0.108347
0.108762
0.108783
0.108805
0.108833
0.10846
0.1085
0.108547
0.108591
0.10906
0.10912
0.109198
0.109268
0.108949
0.109041
0.109544
0.109249
0.109357
0.109477
0.109978
0.109675
0.110161
0.110235
0.110271
0.109875
0.110283
0.109834
0.109799
0.109714
0.110046
0.10995
0.109459
0.109363
0.109664
0.109552
0.109454
0.10936
0.108862
0.109174
0.109096
0.109019
0.108952
0.108487
0.10843
0.108785
0.108337
0.108295
0.108259
0.108223
0.108204
0.108565
0.108564
0.108562
0.108227
0.109721
0.119848
0.189804
0.189692
0.121056
0.110448
0.1084
0.108332
0.108328
0.10873
0.108738
0.108343
0.108764
0.10838
0.108404
0.108433
0.10847
0.10891
0.108556
0.108608
0.10866
0.108717
0.109191
0.10926
0.108939
0.109427
0.109112
0.109194
0.109691
0.109381
0.109866
0.109501
0.109961
0.109569
0.11
0.109992
0.109561
0.10952
0.109466
0.109808
0.109329
0.109248
0.109574
0.109491
0.108999
0.10932
0.10924
0.109159
0.109091
0.109018
0.108558
0.108894
0.10844
0.108396
0.108355
0.108318
0.108287
0.108261
0.108232
0.108615
0.108595
0.108593
0.108589
0.108262
0.110247
0.120287
0.189381
0.189237
0.121065
0.110151
0.108803
0.108327
0.108321
0.108316
0.108322
0.108328
0.108751
0.108766
0.10879
0.108814
0.108845
0.108476
0.108921
0.108556
0.108601
0.109063
0.109119
0.108782
0.108848
0.10931
0.109395
0.109054
0.109529
0.109591
0.109645
0.109687
0.109319
0.10976
0.109766
0.109761
0.109727
0.10929
0.109658
0.109203
0.109547
0.109484
0.109412
0.109344
0.109278
0.108803
0.108732
0.109074
0.109012
0.108554
0.1089
0.108456
0.108805
0.10877
0.108734
0.108301
0.10868
0.108658
0.108638
0.108228
0.108216
0.10822
0.108221
0.108297
0.110395
0.120704
0.188996
0.188828
0.121379
0.110244
0.108802
0.108725
0.108719
0.108712
0.10831
0.108314
0.108734
0.108343
0.108366
0.108386
0.108413
0.10885
0.108884
0.108516
0.108965
0.109011
0.109056
0.108706
0.109167
0.109226
0.109279
0.109338
0.10898
0.109439
0.10908
0.109111
0.109552
0.109572
0.109564
0.109548
0.109135
0.10911
0.109484