/*--------------------------------*- C++ -*----------------------------------*\
  =========                 |
  \\      /  F ield         | OpenFOAM: The Open Source CFD Toolbox
   \\    /   O peration     | Website:  https://openfoam.org
    \\  /    A nd           | Version:  11
     \\/     M anipulation  |
\*---------------------------------------------------------------------------*/
FoamFile
{
    format      ascii;
    class       volScalarField;
    location    "100";
    object      p;
}
// * * * * * * * * * * * * * * * * * * * * * * * * * * * * * * * * * * * * * //

dimensions      [0 2 -2 0 0 0 0];

internalField   nonuniform List<scalar> 
272944
(
-2.34386e-05
2.63073e-05
2.53853e-05
3.38682e-05
2.31494e-05
2.45305e-05
2.85894e-05
1.63109e-05
2.88212e-05
1.01817e-05
2.11145e-05
6.42339e-06
1.19385e-05
3.89699e-06
4.11981e-06
-5.95999e-06
-5.39553e-06
-3.60101e-06
-5.09541e-06
-1.14954e-05
-1.61105e-05
-2.1114e-05
-2.77728e-05
-3.98644e-05
-4.83044e-05
-4.48635e-05
-3.80409e-05
-3.66044e-05
-4.45955e-05
-7.48352e-05
-8.1498e-05
-0.00012071
-0.000111153
-5.73129e-05
-5.45617e-05
-4.15244e-05
-4.72095e-05
-4.89138e-05
-5.04198e-05
-3.81173e-05
-3.87141e-05
-3.23341e-05
-2.68397e-05
-2.4726e-05
-2.26135e-05
-1.38879e-05
-8.61611e-06
-1.67199e-06
-1.06244e-05
-7.54269e-06
-8.363e-06
7.01575e-06
-3.42727e-06
3.10647e-05
4.64687e-05
5.81702e-05
8.62261e-06
-5.78121e-06
-1.51184e-05
9.0464e-06
3.72136e-05
4.27765e-05
5.45948e-05
5.69227e-06
1.15008e-05
6.70186e-05
6.70678e-05
7.50923e-05
5.9814e-05
6.53122e-05
6.74164e-05
5.78035e-05
6.78424e-05
4.92049e-05
6.18374e-05
5.24682e-05
5.9501e-05
5.0486e-05
5.1464e-05
4.72243e-05
5.89715e-05
6.48383e-05
5.6195e-05
4.43142e-05
4.40127e-05
4.24719e-05
2.77194e-05
6.26588e-06
-5.07962e-06
-1.08049e-07
1.70632e-05
3.52631e-05
3.61223e-05
2.60969e-05
4.45541e-07
1.01145e-06
9.51579e-06
1.57027e-05
2.83954e-05
2.843e-05
3.449e-05
2.46361e-05
2.5123e-05
3.06284e-05
3.31984e-05
5.06111e-05
6.90422e-05
7.72906e-05
7.44068e-05
6.12923e-05
4.52665e-05
3.96222e-05
3.28443e-05
3.55521e-05
4.29575e-05
6.46086e-05
6.27078e-05
0.000110561
0.000126338
0.000144808
9.48645e-05
9.3736e-05
0.00012409
8.79226e-05
0.000109045
9.8943e-05
8.44619e-05
3.27109e-05
1.55605e-05
7.4141e-05
7.68341e-05
7.82155e-05
6.7238e-05
6.90168e-05
7.23439e-05
6.04654e-05
6.94424e-05
5.23656e-05
6.47887e-05
5.34985e-05
6.10142e-05
4.71804e-05
4.81514e-05
5.25205e-05
7.05891e-05
7.16578e-05
5.68266e-05
4.11944e-05
4.06125e-05
3.71975e-05
1.47091e-05
-1.44939e-05
-2.46325e-05
-9.52915e-06
2.08237e-05
5.21305e-05
5.68722e-05
3.37721e-05
2.32041e-06
-2.47031e-05
-2.04264e-05
8.88834e-07
8.28753e-06
2.26282e-05
3.32889e-05
3.94216e-05
4.32262e-05
4.25439e-05
3.52057e-05
4.79313e-05
5.99578e-05
6.61352e-05
5.64219e-05
4.05242e-05
2.90264e-05
2.77133e-05
1.82323e-05
2.49394e-05
2.2846e-05
6.66104e-05
9.81411e-05
0.000128039
0.000163867
0.000184339
0.00015725
0.000163261
0.000109067
0.000124401
0.00016959
0.000147217
9.46358e-05
1.49192e-05
2.72672e-05
8.33868e-05
8.08971e-05
9.32366e-05
7.69604e-05
8.31223e-05
8.45348e-05
7.43869e-05
8.34766e-05
6.53533e-05
7.42929e-05
5.74961e-05
6.46557e-05
5.50891e-05
6.0776e-05
6.43124e-05
6.82345e-05
5.87286e-05
4.53696e-05
3.02743e-05
1.82857e-05
2.32028e-06
-2.20437e-05
-4.94358e-05
-5.29479e-05
-3.12682e-05
-4.13834e-06
1.44267e-05
1.74336e-05
4.36406e-06
-1.99221e-05
-2.82877e-05
-3.03114e-05
-3.33002e-05
-2.45264e-05
-1.97062e-05
-1.46916e-05
-9.75952e-06
-1.23725e-06
-1.45631e-06
9.42888e-06
1.68061e-05
2.18828e-05
2.05631e-05
1.86306e-05
1.38331e-05
1.48771e-05
1.81772e-05
3.47476e-05
4.39906e-05
5.78459e-05
9.21186e-05
0.000134887
0.00015863
0.000120532
0.000176429
0.000169109
0.000176691
0.000178118
0.000103085
0.000199331
0.00015969
0.000118534
8.62298e-06
9.96584e-06
6.91849e-05
6.55729e-05
7.29132e-05
5.95966e-05
6.31632e-05
6.52877e-05
5.48292e-05
6.44602e-05
4.60568e-05
5.45822e-05
3.97214e-05
4.87798e-05
4.20285e-05
4.32849e-05
3.5643e-05
3.55083e-05
3.21386e-05
2.84663e-05
1.67575e-05
2.14496e-06
-1.00895e-05
-2.0342e-05
-2.85548e-05
-2.66455e-05
-1.13712e-05
1.49953e-06
1.73655e-06
-4.15803e-06
-3.00095e-06
-1.46348e-05
-3.0684e-05
-4.01017e-05
-3.83376e-05
-2.45752e-05
-1.78203e-05
-1.6556e-05
-1.85363e-05
-1.88768e-05
-1.99009e-05
-1.6387e-05
-5.88222e-06
8.60878e-07
4.51961e-06
8.95958e-06
1.41266e-05
1.063e-05
1.66328e-05
1.72107e-05
6.29033e-05
6.78294e-05
0.000111088
0.000139946
0.000100302
0.000115772
0.000124056
0.00012919
0.000112982
6.71316e-05
0.000104942
0.000145695
0.000133052
0.000114677
-7.61508e-06
1.54026e-05
7.19389e-05
6.79703e-05
8.15387e-05
6.53106e-05
7.16882e-05
7.21509e-05
6.12759e-05
7.19321e-05
5.58519e-05
6.65291e-05
5.02546e-05
5.49581e-05
4.13893e-05
3.75394e-05
2.87077e-05
2.97851e-05
2.53671e-05
1.76779e-05
2.75126e-06
-8.80643e-06
-1.73199e-05
-1.87817e-05
-2.44016e-05
-3.38362e-05
-3.95505e-05
-4.66201e-05
-4.44341e-05
-4.05862e-05
-3.62993e-05
-4.13202e-05
-5.44851e-05
-6.22863e-05
-5.67024e-05
-4.51586e-05
-4.10047e-05
-4.34258e-05
-4.83818e-05
-5.14405e-05
-4.85313e-05
-4.20411e-05
-3.42092e-05
-2.22334e-05
-2.75047e-06
1.06899e-05
2.17062e-05
2.61808e-05
3.16484e-05
4.81765e-05
6.922e-05
7.2413e-05
0.000118623
9.3409e-05
9.63793e-05
9.91135e-05
0.00014542
0.000135669
0.000146449
0.000144854
0.000110929
0.000125206
0.000166475
0.000138528
3.91425e-06
2.72169e-05
6.45532e-05
7.07506e-05
7.95668e-05
6.45734e-05
7.12759e-05
7.03089e-05
5.96888e-05
7.0241e-05
5.41509e-05
6.34547e-05
4.55828e-05
4.87556e-05
3.5997e-05
3.50206e-05
2.65961e-05
2.37529e-05
1.49854e-05
9.09475e-06
2.94437e-06
-2.1892e-06
-3.96951e-06
-7.84374e-06
-1.91769e-05
-3.4962e-05
-5.36827e-05
-6.25921e-05
-5.52111e-05
-4.31384e-05
-3.07296e-05
-3.94578e-05
-4.89988e-05
-5.59157e-05
-5.39858e-05
-4.50474e-05
-4.07814e-05
-4.10218e-05
-4.82276e-05
-5.4567e-05
-4.83952e-05
-3.55115e-05
-2.79667e-05
-2.29011e-05
-1.33389e-05
-6.48498e-06
1.23947e-06
1.28715e-05
2.78503e-05
2.43209e-05
7.41884e-05
6.21259e-05
6.5868e-05
7.01422e-05
0.000109159
9.93944e-05
0.000130116
0.000116972
0.000126515
0.00012386
0.000120654
0.000163501
0.00017344
0.000154241
6.52405e-06
1.34195e-05
5.55736e-05
5.87117e-05
6.86564e-05
5.41802e-05
6.17444e-05
5.96524e-05
4.90119e-05
5.86393e-05
4.15148e-05
5.03631e-05
3.32363e-05
3.75939e-05
2.48493e-05
2.22877e-05
1.05779e-05
4.74355e-06
-3.99291e-06
-7.89092e-06
-1.37744e-05
-2.36201e-05
-3.48401e-05
-4.92618e-05
-7.0046e-05
-0.000101579
-0.00010389
-0.000110638
-0.000104175
-9.17807e-05
-8.80556e-05
-9.68841e-05
-0.000105001
-0.000110518
-0.000113727
-0.000109362
-0.0001024
-9.77229e-05
-9.5124e-05
-8.6893e-05
-7.65245e-05
-6.73025e-05
-5.59134e-05
-4.7966e-05
-4.3301e-05
-3.94504e-05
-3.07864e-05
-1.93527e-05
-7.93034e-06
-2.19069e-06
4.1275e-05
3.90324e-05
3.69897e-05
7.08238e-05
1.58779e-05
0.000135021
0.000125918
0.000148196
0.000172489
0.00018108
0.000160615
0.000174393
0.000158707
9.80474e-05
-7.15262e-06
2.66844e-05
6.55903e-05
6.87641e-05
7.88659e-05
6.44369e-05
7.11593e-05
6.81812e-05
5.79043e-05
6.64853e-05
4.92919e-05
5.75435e-05
3.98123e-05
4.31627e-05
2.90572e-05
2.59677e-05
1.4822e-05
1.00445e-05
6.89706e-07
-6.89899e-06
-1.83476e-05
-3.79181e-05
-5.82216e-05
-7.14469e-05
-9.32834e-05
-9.91089e-05
-0.000119279
-0.000118286
-0.000123693
-0.00012883
-0.000135054
-0.000144527
-0.000154017
-0.000157033
-0.000152199
-0.00014301
-0.000138626
-0.000142487
-0.000132782
-0.00012532
-0.000108427
-8.68275e-05
-7.77789e-05
-6.35921e-05
-5.01953e-05
-4.0667e-05
-3.50618e-05
-3.19674e-05
-1.61809e-05
-6.71021e-06
3.32529e-06
4.43882e-05
5.40041e-05
5.64909e-05
0.000142983
9.25471e-05
0.000159822
0.000104278
0.000134365
0.000144906
0.000184189
0.000186945
0.000156774
7.85273e-05
1.67518e-05
1.07014e-05
5.05341e-05
5.40085e-05
6.3346e-05
4.76022e-05
5.35329e-05
5.09886e-05
4.07869e-05
4.86413e-05
3.1395e-05
3.84886e-05
2.00785e-05
2.27627e-05
7.89351e-06
3.96628e-06
-8.74755e-06
-1.78134e-05
-3.34613e-05
-4.92913e-05
-6.64377e-05
-8.35519e-05
-0.000101792
-0.000112067
-0.00011772
-0.000147521
-0.000157761
-0.000179181
-0.000173342
-0.000184665
-0.000189256
-0.000202968
-0.000218873
-0.00022237
-0.000211249
-0.000194426
-0.000183182
-0.000191292
-0.000190913
-0.000190639
-0.000158622
-0.00014122
-0.000119882
-0.00010573
-8.87029e-05
-7.38383e-05
-6.35868e-05
-6.02244e-05
-4.52686e-05
-4.6036e-05
-9.30395e-06
2.90052e-05
3.10314e-05
7.1986e-05
2.7141e-05
0.000123094
3.9739e-05
0.000122664
0.000114316
0.000152665
0.000146207
0.000153907
0.000104389
5.04966e-05
1.10036e-05
2.68901e-05
6.78276e-05
6.96831e-05
7.79017e-05
5.95258e-05
6.42749e-05
6.2273e-05
5.12809e-05
5.79331e-05
3.99354e-05
4.48096e-05
2.51406e-05
2.55248e-05
7.81661e-06
7.2894e-07
-1.5212e-05
-2.90523e-05
-5.15761e-05
-7.32585e-05
-9.04241e-05
-0.000109458
-0.000123536
-0.000130657
-0.00015732
-0.000174762
-0.000213473
-0.000214274
-0.000227015
-0.000218814
-0.000229502
-0.000251789
-0.000272065
-0.000270065
-0.000255529
-0.000233816
-0.000215844
-0.000213106
-0.00021138
-0.000210352
-0.000190308
-0.000169649
-0.000144211
-0.000121778
-0.000105761
-8.64076e-05
-7.05121e-05
-5.56663e-05
-4.20629e-05
-3.52126e-05
-5.03255e-06
1.13141e-05
5.0887e-05
-1.52826e-06
0.000109566
6.69812e-05
0.000150948
3.02949e-06
0.000125946
0.000144994
0.000157623
0.000150212
0.000123127
5.93767e-05
1.97961e-05
1.31523e-05
6.00186e-05
6.04457e-05
6.59283e-05
4.55076e-05
4.73633e-05
4.58997e-05
3.32218e-05
3.93014e-05
2.04548e-05
2.32588e-05
3.34808e-06
2.53184e-06
-1.61243e-05
-2.41443e-05
-4.5637e-05
-7.17532e-05
-0.000101311
-0.000118278
-0.000141854
-0.000162097
-0.0001857
-0.000204327
-0.000223549
-0.000256675
-0.000267716
-0.000292885
-0.000274367
-0.000295051
-0.000309608
-0.000345495
-0.000367923
-0.00036521
-0.000346784
-0.000318402
-0.000295861
-0.000283096
-0.000271383
-0.000265024
-0.000237517
-0.000213981
-0.000192231
-0.000170123
-0.000142951
-0.000122515
-9.76137e-05
-8.44192e-05
-6.71788e-05
-5.84992e-05
-4.92808e-05
-2.65117e-05
-8.33956e-07
7.54652e-06
4.39955e-05
9.73647e-05
0.000117149
0.000135371
0.000114704
0.000143639
8.52829e-05
0.000138695
7.03778e-05
2.93407e-05
-2.06665e-05
1.2147e-05
6.47274e-05
6.96044e-05
7.43078e-05
5.11802e-05
5.28182e-05
5.16005e-05
3.64261e-05
4.30605e-05
2.24955e-05
2.31093e-05
3.68864e-06
1.09238e-07
-2.08654e-05
-3.68031e-05
-7.4859e-05
-0.00010431
-0.00012731
-0.000153775
-0.000170581
-0.000204253
-0.000228887
-0.00025821
-0.000293371
-0.000307005
-0.000348906
-0.000345704
-0.000369048
-0.000366003
-0.00039475
-0.000435811
-0.000467153
-0.00046971
-0.000444377
-0.000406754
-0.000382904
-0.000357026
-0.000350343
-0.00032302
-0.000303683
-0.000252962
-0.000238174
-0.000205487
-0.000189102
-0.000158204
-0.000135637
-0.000117879
-8.5108e-05
-7.40578e-05
-6.34938e-05
-3.59757e-05
5.39526e-06
4.96235e-06
7.1904e-05
6.97064e-05
0.000146902
7.16869e-05
0.000109028
0.000133182
0.000117601
0.000137409
7.17552e-05
2.12098e-05
-5.39054e-05
1.61177e-06
5.72358e-05
6.11155e-05
6.27802e-05
4.18999e-05
4.37396e-05
4.04367e-05
2.37397e-05
3.09573e-05
5.93495e-06
5.06074e-06
-1.46645e-05
-2.16237e-05
-4.9269e-05
-8.21107e-05
-0.000121689
-0.000135237
-0.000160556
-0.000183823
-0.000229929
-0.000248088
-0.000281169
-0.000326706
-0.000352065
-0.000405958
-0.000417378
-0.000467621
-0.000468729
-0.000481202
-0.000496081
-0.000559972
-0.000588909
-0.000592343
-0.000561127
-0.00051265
-0.000484061
-0.000451804
-0.000447413
-0.000409821
-0.00039762
-0.000330662
-0.000300825
-0.000275714
-0.000238116
-0.000226253
-0.000174833
-0.000157358
-0.000120238
-9.06209e-05
-7.87592e-05
-5.23581e-05
-1.33147e-05
-1.94075e-05
2.65992e-05
3.09807e-05
7.67119e-05
0.000118757
9.81211e-05
0.00010984
0.000101025
0.000127825
4.92697e-05
-1.27068e-05
-7.90809e-05
5.93086e-06
5.78627e-05
5.48475e-05
5.40285e-05
3.9549e-05
4.43352e-05
3.8127e-05
2.29753e-05
3.05661e-05
3.34357e-07
-7.417e-07
-2.14459e-05
-3.51932e-05
-7.73461e-05
-0.000110839
-0.000135181
-0.000158557
-0.000190137
-0.000241742
-0.000266768
-0.000305951
-0.000355882
-0.000390863
-0.000453715
-0.000466786
-0.000532054
-0.000561399
-0.000606248
-0.000602194
-0.00064942
-0.000701585
-0.000733214
-0.000735581
-0.000701346
-0.000639552
-0.000598726
-0.000555562
-0.000542495
-0.000496902
-0.00048674
-0.000400429
-0.000372083
-0.000326417
-0.000287284
-0.000265044
-0.000230779
-0.000199647
-0.000127034
-0.000103296
-9.75918e-05
-6.949e-05
-3.90513e-05
-2.03953e-05
4.45645e-06
1.51781e-05
4.79165e-05
7.26344e-05
0.00012269
9.19836e-05
8.3928e-05
0.000125239
4.65346e-05
-6.40491e-06
-7.79809e-05
-7.17297e-06
4.0925e-05
3.51047e-05
3.98933e-05
2.74265e-05
3.01901e-05
2.58931e-05
1.39296e-05
1.74587e-05
-1.68107e-05
-1.46099e-05
-3.92968e-05
-6.47401e-05
-0.000111254
-0.000138886
-0.000169675
-0.000197935
-0.000254496
-0.000285505
-0.000338304
-0.000391702
-0.000437179
-0.000520483
-0.000533669
-0.000600748
-0.000642906
-0.000720946
-0.000741203
-0.000790805
-0.000828848
-0.000881146
-0.000913162
-0.000918298
-0.000887133
-0.000814287
-0.000749797
-0.000705049
-0.000667179
-0.000610547
-0.000595129
-0.000497952
-0.000448151
-0.000401786
-0.000332908
-0.000345504
-0.000248333
-0.000210044
-0.00017888
-0.000147898
-0.000122468
-0.000124577
-6.47653e-05
-7.43719e-05
-1.74257e-06
-1.5657e-05
2.21298e-05
7.61976e-05
0.000124029
0.000108553
9.37596e-05
8.7281e-05
4.52751e-05
8.15833e-06
-6.11862e-05
-1.54122e-05
4.10995e-05
4.08976e-05
3.8339e-05
2.17321e-05
1.81754e-05
2.20073e-05
1.46499e-05
6.66306e-06
-3.02914e-05
-2.58449e-05
-5.85012e-05
-9.0001e-05
-0.000133073
-0.000169407
-0.000200493
-0.000252726
-0.000292186
-0.000354619
-0.00041116
-0.000476493
-0.000574501
-0.000608556
-0.000683519
-0.000729506
-0.000823226
-0.000856152
-0.0009301
-0.000983669
-0.00101982
-0.00107524
-0.00109493
-0.00110496
-0.0010904
-0.00101775
-0.000939084
-0.000882514
-0.00082508
-0.000758153
-0.000689813
-0.000607215
-0.000544267
-0.000476722
-0.000440334
-0.000337457
-0.000328007
-0.000247411
-0.000211853
-0.000153142
-0.000147916
-0.000124411
-7.17252e-05
-3.97973e-05
7.10916e-06
-1.61376e-05
1.83312e-05
5.99131e-05
8.26641e-05
9.75207e-05
8.75797e-05
9.27509e-05
4.21729e-05
2.57617e-05
-3.351e-05
-1.87805e-05
4.30897e-05
4.16789e-05
3.08387e-05
7.92361e-06
6.926e-06
1.7957e-05
1.89837e-06
-8.58964e-06
-3.91774e-05
-3.64344e-05
-8.10891e-05
-0.000113869
-0.000163823
-0.000199143
-0.000250249
-0.000291268
-0.000355959
-0.000420354
-0.000499171
-0.000589622
-0.000667887
-0.000759298
-0.000833417
-0.000935149
-0.0009838
-0.00106898
-0.00114738
-0.00120622
-0.00125268
-0.00130247
-0.00131215
-0.0013236
-0.00132361
-0.00125845
-0.0011809
-0.00109985
-0.00102512
-0.000921012
-0.000824099
-0.000760062
-0.000657224
-0.000566917
-0.000484022
-0.000410449
-0.000346852
-0.000303285
-0.000244044
-0.000214573
-0.000159562
-0.000157776
-0.000125945
-6.28547e-05
-2.69016e-05
-1.29162e-05
2.65644e-05
4.28735e-05
3.08388e-05
1.72748e-05
7.6745e-05
5.75669e-05
2.06615e-05
2.72693e-05
-2.22022e-05
-1.52978e-05
4.15875e-05
3.7346e-05
1.81986e-05
8.7848e-07
8.69114e-06
1.58289e-05
-9.3964e-06
-2.30227e-05
-4.95043e-05
-5.29982e-05
-0.00010321
-0.000139718
-0.000189678
-0.000240922
-0.000280818
-0.000337677
-0.000412398
-0.000504045
-0.000584275
-0.000700696
-0.000793416
-0.000904598
-0.00100774
-0.00110398
-0.00119839
-0.00129262
-0.00137453
-0.00145943
-0.00150339
-0.00157231
-0.00156887
-0.00157434
-0.00157885
-0.00151176
-0.00144851
-0.00135483
-0.00123731
-0.00115263
-0.000994548
-0.000899548
-0.000779924
-0.000700628
-0.000613006
-0.000525821
-0.000471165
-0.000395684
-0.000322144
-0.000244418
-0.000239418
-0.000209263
-0.00010748
-8.56966e-05
-4.80692e-05
-3.17726e-05
2.7046e-05
3.8571e-05
2.32671e-05
3.00735e-05
9.3662e-05
6.4442e-05
1.30489e-05
3.51642e-05
-2.27009e-05
-2.38435e-05
2.70503e-05
2.2341e-05
3.42765e-06
-5.80131e-07
7.04892e-06
6.53797e-06
-3.03255e-05
-3.67009e-05
-6.28305e-05
-7.73223e-05
-0.000133404
-0.000160512
-0.000221062
-0.000268971
-0.000331348
-0.000396123
-0.000500731
-0.000579874
-0.000715732
-0.000796944
-0.000937481
-0.00105698
-0.00121402
-0.00133186
-0.00146123
-0.00157809
-0.00167753
-0.00177348
-0.0018294
-0.0019081
-0.00188649
-0.00187143
-0.00189146
-0.00180315
-0.0017536
-0.00163233
-0.00151001
-0.00134182
-0.00121074
-0.00104421
-0.000976488
-0.000787304
-0.000694586
-0.00058796
-0.000509091
-0.000435996
-0.000334715
-0.00038108
-0.000201996
-0.000172873
-0.000114684
-9.22898e-05
-5.84398e-05
-1.50519e-05
2.95535e-05
2.60022e-05
2.66348e-05
4.16453e-05
7.366e-05
4.78937e-05
2.64988e-05
2.92558e-05
-2.67037e-05
-3.81385e-05
1.13816e-05
8.84767e-06
4.42063e-07
1.03297e-05
1.201e-05
-7.27524e-06
-3.49622e-05
-3.758e-05
-6.72568e-05
-0.000100237
-0.000151938
-0.000191279
-0.000246205
-0.00031961
-0.000382064
-0.000471398
-0.000564293
-0.000699635
-0.000784636
-0.000933287
-0.00107016
-0.00126913
-0.00141168
-0.00158963
-0.00175424
-0.00188703
-0.0020105
-0.00213612
-0.00218244
-0.00230458
-0.00224687
-0.0022308
-0.00224774
-0.00212687
-0.00206109
-0.00192796
-0.00178102
-0.00160564
-0.0014322
-0.00128106
-0.00111966
-0.00105204
-0.000945896
-0.000821721
-0.000759677
-0.000614172
-0.000408837
-0.000308763
-0.000225928
-0.000175179
-0.000118336
-8.9762e-05
-6.20758e-05
-1.64175e-05
5.73432e-06
-1.83619e-05
5.31019e-05
6.60957e-05
4.81717e-05
3.33675e-05
5.36893e-05
4.23766e-05
-2.97873e-05
-3.50634e-05
1.79288e-05
1.96154e-05
1.92296e-05
2.78925e-05
4.46343e-06
-1.69696e-05
-4.1522e-05
-3.8373e-05
-8.3093e-05
-0.000114371
-0.000179215
-0.000188427
-0.000284463
-0.000347483
-0.000435996
-0.00051933
-0.000664193
-0.000761997
-0.000926356
-0.0010678
-0.00128052
-0.00143883
-0.00166182
-0.00187994
-0.0020679
-0.00225374
-0.00240052
-0.00256608
-0.00260876
-0.00277066
-0.00271731
-0.00270855
-0.0027057
-0.00252454
-0.00245111
-0.00227875
-0.00212419
-0.00189352
-0.00169949
-0.00148464
-0.00130533
-0.00111969
-0.000946035
-0.000797319
-0.000668289
-0.000537849
-0.000401771
-0.000309324
-0.000240329
-0.000210987
-0.000128964
-0.000225715
-6.28061e-05
-7.96235e-05
-5.43659e-05
-7.4084e-06
5.93218e-05
6.15797e-05
3.9747e-05
1.99833e-05
1.95505e-05
2.51706e-05
-3.2751e-05
-2.79702e-05
3.72496e-05
4.83048e-05
3.96359e-05
2.30458e-05
-1.12001e-05
-3.84644e-05
-3.63306e-05
-5.29685e-05
-9.95371e-05
-0.000144366
-0.000170933
-0.000218744
-0.000292784
-0.000386122
-0.000464422
-0.000605202
-0.000714522
-0.000879194
-0.00104766
-0.00124007
-0.00143658
-0.00167845
-0.00193997
-0.00217254
-0.00241324
-0.00264623
-0.00281082
-0.00304485
-0.00304762
-0.00323355
-0.00312763
-0.00310325
-0.00316634
-0.00301591
-0.00288226
-0.00266912
-0.00247185
-0.00222129
-0.00195007
-0.0017312
-0.00149787
-0.00129802
-0.00110768
-0.00092187
-0.000762815
-0.000609699
-0.000495154
-0.000339996
-0.000411339
-0.000282156
-0.000260983
-0.000207693
-0.000140424
-0.000133259
-2.36849e-05
3.40412e-05
4.88864e-05
1.8692e-05
3.25413e-05
1.83676e-05
3.57617e-05
2.46568e-05
-2.12e-05
-2.23609e-05
5.13307e-05
6.53722e-05
3.21145e-05
9.33434e-06
-2.90232e-05
-1.87754e-05
-4.65667e-05
-5.45501e-05
-0.000112782
-0.000125929
-0.000186819
-0.000238093
-0.000328868
-0.000402106
-0.000535293
-0.000643517
-0.000808761
-0.000976587
-0.00117505
-0.00141473
-0.00165114
-0.00191525
-0.00221451
-0.00248631
-0.00277657
-0.00303765
-0.00328596
-0.00344942
-0.0035559
-0.00388785
-0.00378206
-0.00375318
-0.00377508
-0.0033679
-0.00333316
-0.00303715
-0.00284288
-0.00253601
-0.00226968
-0.00196328
-0.0016951
-0.00147722
-0.00123503
-0.00105915
-0.000880855
-0.000725871
-0.000577277
-0.00040213
-0.000392567
-0.000287115
-0.000226436
-0.000212534
-0.000142427
-9.97861e-05
9.22086e-06
3.09847e-05
1.55661e-05
-5.34042e-06
2.33605e-05
2.25149e-05
4.35298e-05
2.76637e-05
-7.92738e-06
-7.02898e-06
6.35998e-05
5.94838e-05
1.59469e-05
-2.60891e-07
-1.78644e-05
-7.55524e-06
-3.33778e-05
-6.39345e-05
-0.000135477
-0.000153794
-0.000198169
-0.000257251
-0.000352624
-0.000471195
-0.000570461
-0.000726207
-0.000884527
-0.00107693
-0.00133694
-0.00157796
-0.00187083
-0.00219629
-0.00249195
-0.00284075
-0.00312799
-0.00347911
-0.00362232
-0.0039812
-0.00405209
-0.00429617
-0.00411396
-0.0040669
-0.00417823
-0.00389583
-0.00373106
-0.00343519
-0.00320676
-0.00289102
-0.00257468
-0.0022615
-0.00196674
-0.0016619
-0.00140768
-0.00117004
-0.000955815
-0.000758499
-0.000610648
-0.000481388
-0.000408696
-0.000297914
-0.000205853
-0.000129615
-0.00011866
-6.23678e-05
-3.04708e-06
-1.4295e-05
-1.83033e-05
-6.15479e-06
1.66332e-05
7.1211e-06
2.16433e-05
3.49449e-05
5.01703e-06
8.43176e-06
6.9494e-05
5.65508e-05
2.79137e-06
6.28807e-06
-7.14459e-06
2.20309e-05
-3.13125e-05
-7.36935e-05
-0.000142096
-0.000160102
-0.000216763
-0.000304381
-0.000394704
-0.000491459
-0.000635605
-0.000785458
-0.00098795
-0.00118062
-0.00146656
-0.00176504
-0.0021095
-0.00241794
-0.00278262
-0.00312381
-0.00348013
-0.0037483
-0.00402172
-0.00433658
-0.00436447
-0.00436238
-0.00391823
-0.0037903
-0.00422385
-0.00399268
-0.00406212
-0.00369158
-0.00349449
-0.00320353
-0.00287371
-0.00252504
-0.00218997
-0.00191843
-0.00163145
-0.00137368
-0.00113003
-0.000929071
-0.000737295
-0.000594056
-0.000450782
-0.000362287
-0.000286194
-0.000203051
-0.000183694
-0.00018622
-6.1779e-05
-7.07541e-05
-5.14129e-05
-4.99826e-05
-1.28388e-06
7.83663e-06
3.89583e-05
7.2847e-05
5.35828e-05
1.20887e-05
6.65947e-05
4.47588e-05
1.24237e-07
1.12008e-05
2.01174e-05
3.74451e-05
-3.68586e-05
-9.29936e-05
-0.00014487
-0.000158983
-0.000234946
-0.000311722
-0.000412787
-0.000528274
-0.000683055
-0.000855737
-0.00105652
-0.00132062
-0.00162543
-0.0019498
-0.00228684
-0.002686
-0.00308046
-0.00346452
-0.00376806
-0.00416909
-0.00423812
-0.00432377
-0.00334238
-0.00230746
-0.00142206
-0.00136782
-0.00215379
-0.00297787
-0.00375155
-0.00386619
-0.00380077
-0.00347884
-0.0031724
-0.00280831
-0.00243705
-0.0021042
-0.00178171
-0.00152077
-0.00129223
-0.00108733
-0.00090518
-0.000761648
-0.000629398
-0.000504751
-0.00040894
-0.000312625
-0.000252698
-0.000228731
-0.000103331
-7.37605e-05
-6.9735e-05
-7.46659e-05
-4.73499e-06
2.13505e-05
5.79718e-05
8.55132e-05
7.87907e-05
-1.23356e-06
5.17226e-05
2.97457e-05
-1.31263e-05
1.37976e-05
2.64856e-05
3.86437e-05
-5.18343e-05
-9.91787e-05
-0.000132787
-0.000159197
-0.000250743
-0.000343574
-0.000438053
-0.000558769
-0.000717969
-0.000921521
-0.0011752
-0.00142541
-0.00172902
-0.00207909
-0.00246823
-0.00288229
-0.00330086
-0.00365417
-0.00404126
-0.00430926
-0.00410507
-0.00273521
-0.000173439
0.00153357
0.00235826
0.00248778
0.00180015
0.000310997
-0.0020551
-0.00339245
-0.00388668
-0.00370992
-0.00337782
-0.00301522
-0.00263775
-0.00227364
-0.00192812
-0.00166589
-0.0014278
-0.00122753
-0.00101936
-0.000818888
-0.000628968
-0.000472949
-0.00039638
-0.000346047
-0.00026808
-0.000198473
-7.69436e-05
-6.43508e-05
-4.38899e-05
-5.05445e-05
1.00906e-05
5.19555e-05
8.17257e-05
6.26727e-05
2.62617e-05
-2.14963e-05
3.08957e-05
1.21318e-05
-2.24556e-05
8.60971e-06
2.15263e-05
1.01494e-05
-9.26325e-05
-0.000131042
-0.000148535
-0.000183736
-0.000280287
-0.00037543
-0.000489036
-0.000615055
-0.000789498
-0.000997419
-0.00123057
-0.00149369
-0.0018367
-0.00220871
-0.00263434
-0.00309713
-0.0035689
-0.0040272
-0.00440557
-0.00451677
-0.00308252
0.000288953
0.00319718
0.00491282
0.00570891
0.00579516
0.00518462
0.00385789
0.00130028
-0.00204878
-0.00375548
-0.0039852
-0.00372087
-0.00327169
-0.00287964
-0.00246478
-0.00209187
-0.00179585
-0.00151244
-0.00129189
-0.0010874
-0.000848767
-0.000654274
-0.000516215
-0.000405475
-0.0003566
-0.000264867
-0.000194507
-0.000104665
-6.72229e-05
-1.76082e-05
-4.72409e-05
8.82487e-07
6.50822e-05
0.000120016
6.23931e-05
-2.52517e-05
-4.37748e-05
3.13477e-05
6.6185e-06
-2.04708e-05
9.13943e-06
1.34278e-05
-1.50498e-05
-0.000121493
-0.000153575
-0.000186575
-0.000242511
-0.000352395
-0.000451974
-0.00056401
-0.000685368
-0.00085343
-0.00104656
-0.00127483
-0.00154933
-0.00188153
-0.00229275
-0.00269057
-0.00324018
-0.00361721
-0.00417178
-0.00446706
-0.00374564
-0.000742794
0.00315119
0.00596831
0.00754593
0.00825617
0.00825528
0.00764551
0.00636101
0.0039642
0.000582991
-0.00262801
-0.00381584
-0.00378669
-0.00332918
-0.00295977
-0.00254092
-0.00217263
-0.00185467
-0.00155454
-0.00132806
-0.00111518
-0.000901602
-0.000705439
-0.00057903
-0.000467328
-0.00040088
-0.000309618
-0.000237986
-0.000180771
-0.000128593
-6.31746e-05
-7.60675e-05
-3.09191e-05
4.05026e-05
0.000135536
0.000116481
-5.19941e-05
3.90603e-07
4.74892e-05
1.20814e-05
-1.79483e-05
8.7923e-06
8.45558e-06
-3.69712e-05
-0.000149088
-0.000181656
-0.000227214
-0.000292075
-0.000397432
-0.000492339
-0.00060778
-0.00073418
-0.00089287
-0.00107316
-0.00131277
-0.00159976
-0.00196911
-0.00242259
-0.00285576
-0.00340625
-0.00396194
-0.00447561
-0.00468654
-0.00303875
0.000944996
0.00485002
0.00775005
0.0095337
0.0102101
0.0101345
0.00931952
0.00785389
0.0055087
0.00208761
-0.00173297
-0.00376534
-0.00407576
-0.00362094
-0.00314955
-0.00268576
-0.0022821
-0.00191527
-0.00158457
-0.0013399
-0.00112322
-0.000930403
-0.000763439
-0.000629509
-0.000510591
-0.000414529
-0.000299071
-0.000216347
-0.000166591
-0.000146785
-7.52786e-05
-6.07472e-05
-3.88492e-05
2.33398e-06
0.000128321
0.000170041
5.56343e-05
3.67942e-05
0.000112213
1.16397e-05
-2.3447e-05
1.88137e-06
8.07678e-06
-3.91501e-05
-0.000152961
-0.000190264
-0.000236645
-0.000301093
-0.000407677
-0.000504963
-0.000620242
-0.000735034
-0.000881689
-0.00106243
-0.00131058
-0.00160067
-0.00195136
-0.00240046
-0.00280451
-0.00330394
-0.00389777
-0.00426346
-0.00438113
-0.00218197
0.00178321
0.00569611
0.00870939
0.0106147
0.0114649
0.0112777
0.0102705
0.00859648
0.00618727
0.00299581
-0.00103404
-0.00330455
-0.00385906
-0.00359331
-0.0030701
-0.00263568
-0.00226591
-0.00189252
-0.00156684
-0.00133927
-0.00112921
-0.000962426
-0.000817913
-0.000668916
-0.000534752
-0.000418115
-0.000289727
-0.000192981
-0.000144686
-0.000149864
-6.42123e-05
-9.95792e-06
-3.78298e-07
2.45279e-06
7.48041e-05
0.000168667
6.93139e-05
8.19506e-05
0.000156731
2.78132e-05
-3.25389e-05
-1.52305e-05
3.91852e-06
-1.52184e-05
-0.000127362
-0.000177377
-0.000224364
-0.000282092
-0.000384407
-0.000483467
-0.00060163
-0.000713294
-0.000865617
-0.00106264
-0.00131439
-0.00160522
-0.00194527
-0.00238505
-0.00279468
-0.00329526
-0.00390087
-0.00424128
-0.00437614
-0.00219677
0.0018266
0.00563298
0.00869007
0.0106986
0.0115623
0.0114153
0.0103553
0.00856678
0.00616538
0.0029651
-0.00101596
-0.00331811
-0.00384759
-0.00359194
-0.00303286
-0.00262664
-0.00226768
-0.00190786
-0.001581
-0.00136045
-0.00115213
-0.00096653
-0.000796459
-0.000643639
-0.000515461
-0.000397177
-0.000293591
-0.000199689
-0.000144609
-0.000160718
-6.63993e-05
1.41043e-05
1.62449e-05
-1.21818e-05
5.17758e-06
6.0246e-05
6.28548e-06
0.000104799
0.000155252
6.29843e-05
-2.77552e-05
-3.10038e-05
-1.25077e-05
5.99588e-06
-9.18481e-05
-0.000155965
-0.000200598
-0.000253625
-0.000352636
-0.000442199
-0.000549218
-0.000678855
-0.0008532
-0.00106515
-0.00132173
-0.00161434
-0.00196574
-0.0024096
-0.0028312
-0.00340613
-0.00393862
-0.00443632
-0.00463926
-0.00309629
0.000834607
0.00471609
0.00768016
0.00963161
0.0105129
0.0104056
0.00939592
0.00779277
0.00542162
0.00201003
-0.00176769
-0.00376926
-0.00409064
-0.00360374
-0.00314274
-0.00269952
-0.00233008
-0.00193641
-0.00160588
-0.00135322
-0.00112863
-0.000947643
-0.000787514
-0.00065762
-0.000510838
-0.000384131
-0.000275271
-0.000190212
-0.00014159
-0.000142089
-7.19664e-05
-1.15553e-06
8.92391e-06
-4.61051e-05
-5.73624e-05
-4.41046e-05
-9.78718e-05
5.06152e-05
0.000137173
8.25105e-05
1.64984e-06
-2.31425e-05
-2.40362e-05
8.89484e-06
-5.61481e-05
-0.0001137
-0.000175603
-0.000227071
-0.000333818
-0.000431518
-0.000528747
-0.000643464
-0.000814536
-0.0010204
-0.00127031
-0.00154577
-0.00187416
-0.0022554
-0.00266491
-0.00315447
-0.00357105
-0.00410505
-0.00444646
-0.00390049
-0.000921247
0.00281861
0.00595443
0.00753411
0.00843947
0.00843956
0.00768225
0.00626679
0.00392896
0.000399132
-0.00270624
-0.00384697
-0.00377205
-0.00328376
-0.00293632
-0.00256295
-0.00221021
-0.00185107
-0.00154315
-0.00127166
-0.001045
-0.0009009
-0.000768053
-0.000625252
-0.000481799
-0.000369858
-0.000253254
-0.000206139
-0.000144236
-0.000103122
-4.5288e-05
-2.24561e-05
-1.74072e-05
-4.17668e-05
-6.25275e-05
-0.000102061
-0.000184741
1.44758e-05
9.16417e-05
7.66356e-05
1.76456e-05
7.6933e-06
-2.67823e-05
-5.80133e-06
-4.29514e-05
-8.76228e-05
-0.000165454
-0.000224632
-0.000312592
-0.000416058
-0.000517413
-0.000625584
-0.00078487
-0.000990651
-0.00121399
-0.00147104
-0.00180199
-0.00217024
-0.00257715
-0.00303745
-0.00352318
-0.00397661
-0.00435352
-0.00438748
-0.00321264
-0.000179628
0.00292323
0.00480845
0.00555609
0.0056979
0.0050533
0.00369353
0.00085406
-0.00205865
-0.00369776
-0.00393376
-0.00369728
-0.00322899
-0.00291312
-0.00247357
-0.00210437
-0.00174723
-0.00145183
-0.00121601
-0.000999228
-0.000827768
-0.000691022
-0.000572308
-0.000444208
-0.000359735
-0.000229993
-0.000167498
-0.000157875
-0.000109474
-4.10845e-05
-4.64327e-05
-3.54135e-05
-2.59538e-05
3.57174e-06
-3.84857e-05
-8.10922e-05
-2.29704e-05
5.47335e-05
5.44218e-05
1.96198e-05
2.39595e-05
-9.04584e-06
-8.60347e-06
-3.91575e-05
-6.75522e-05
-0.000155527
-0.000216796
-0.000294982
-0.000375821
-0.000507648
-0.000598489
-0.000749875
-0.000914499
-0.00113474
-0.00139819
-0.00169488
-0.00200921
-0.00235732
-0.00276827
-0.00317459
-0.0035927
-0.00397021
-0.00422663
-0.00404439
-0.00325372
-0.00072116
0.000969173
0.00201627
0.00211071
0.00121908
-0.000263337
-0.0024372
-0.00344758
-0.00381177
-0.00365293
-0.00332953
-0.00295613
-0.00264065
-0.00222859
-0.0018678
-0.00158443
-0.00134065
-0.00113753
-0.000935975
-0.000806053
-0.000677555
-0.000515724
-0.000391197
-0.000311077
-0.000219022
-0.000202972
-9.52474e-05
-6.731e-05
-6.95725e-06
-2.08151e-05
-5.84737e-06
9.37899e-06
5.16258e-05
7.93021e-05
2.86811e-05
-4.41963e-05
2.91939e-05
3.34481e-05
4.4819e-07
7.80883e-06
-1.13265e-05
-2.7753e-05
-7.67013e-05
-9.52348e-05
-0.000168193
-0.000213684
-0.000282169
-0.000341898
-0.000442518
-0.0005592