/*--------------------------------*- C++ -*----------------------------------*\
  =========                 |
  \\      /  F ield         | OpenFOAM: The Open Source CFD Toolbox
   \\    /   O peration     | Website:  https://openfoam.org
    \\  /    A nd           | Version:  11
     \\/     M anipulation  |
\*---------------------------------------------------------------------------*/
FoamFile
{
    format      ascii;
    class       volScalarField;
    location    "37";
    object      k;
}
// * * * * * * * * * * * * * * * * * * * * * * * * * * * * * * * * * * * * * //

dimensions      [0 2 -2 0 0 0 0];

internalField   nonuniform List<scalar> 
262144
(
0.00433807
0.00477551
0.00475255
0.00466809
0.00460284
0.00472754
0.00469125
0.0046624
0.00468287
0.00469358
0.0047296
0.00460822
0.00470255
0.00469395
0.00469079
0.00459302
0.00471035
0.00470121
0.00457233
0.00460432
0.00457703
0.00467591
0.00467701
0.00467891
0.00467935
0.00465867
0.00465835
0.00461195
0.00458642
0.00457375
0.00456994
0.00457219
0.00457153
0.00456687
0.00457173
0.00457896
0.00458401
0.00457092
0.00456505
0.00456656
0.00456353
0.00457212
0.004575
0.00470469
0.00471583
0.0047102
0.00470029
0.00471359
0.00471744
0.00471574
0.00472412
0.00471292
0.00469811
0.00460508
0.00458453
0.00460299
0.00476447
0.00469198
0.00461678
0.0046172
0.00471542
0.00472104
0.00482886
0.00424261
0.00476916
0.00158329
0.00134819
0.00124967
0.0013017
0.00120887
0.00126338
0.00122178
0.00123318
0.00127388
0.00126013
0.00125646
0.00125948
0.00124885
0.00126624
0.0012528
0.00122927
0.00121285
0.00120876
0.00126374
0.00127608
0.00128806
0.00127499
0.00133937
0.00124924
0.00134918
0.00134875
0.00126622
0.0013162
0.00123795
0.00125728
0.00121528
0.00122722
0.00122707
0.00122847
0.00123451
0.00123433
0.00121495
0.00123675
0.00123194
0.00123179
0.00125453
0.00127072
0.00123628
0.00123147
0.00123609
0.00123825
0.00133397
0.00127595
0.00123167
0.00128367
0.00121909
0.00128626
0.0012749
0.0012161
0.00123827
0.00124842
0.00128484
0.00128818
0.00127353
0.00125711
0.00131013
0.001518
0.00477781
0.00474755
0.00129583
0.00091187
0.000922737
0.000881265
0.000892274
0.000898321
0.000877009
0.000826231
0.000932972
0.000882092
0.000912683
0.000808139
0.000792255
0.000839605
0.000888185
0.000929699
0.000903927
0.000912888
0.000900921
0.000856039
0.000911461
0.000889437
0.000916569
0.000832453
0.000836675
0.000890587
0.00085571
0.000956594
0.000969514
0.000966701
0.000957376
0.00100001
0.000884373
0.0010014
0.00101777
0.000949271
0.000996612
0.000942411
0.000994662
0.00101346
0.000946226
0.000965085
0.000969659
0.000939897
0.000976976
0.000991484
0.00088231
0.000851789
0.000961701
0.000907059
0.000908334
0.000850424
0.000896479
0.000915482
0.000871959
0.000920108
0.000889272
0.000897548
0.000975009
0.000944573
0.001015
0.00132749
0.00461923
0.0046914
0.00123489
0.000944596
0.000809079
0.000893933
0.000928245
0.000852627
0.000855351
0.000946955
0.000906528
0.000937903
0.000818291
0.000765191
0.000849042
0.000930799
0.000860674
0.000890524
0.000943243
0.000887664
0.000873712
0.000797181
0.000791912
0.000960172
0.00100864
0.000949024
0.000874723
0.000871433
0.000798224
0.00092211
0.000875214
0.00078456
0.000779952
0.000812498
0.000840249
0.000794245
0.000838709
0.000799705
0.000876872
0.000836276
0.000847518
0.000822248
0.000836354
0.000861448
0.00090961
0.000922205
0.000934349
0.000942155
0.000852545
0.000816361
0.000895012
0.000787269
0.000860674
0.000813411
0.000874053
0.000799554
0.000881193
0.000869382
0.000871392
0.000914137
0.00087903
0.000893643
0.000921217
0.00125052
0.0045976
0.00459494
0.00123356
0.000871843
0.000872681
0.000840875
0.000827184
0.000899284
0.000884392
0.000890642
0.000852882
0.000882213
0.000922606
0.000928583
0.000861196
0.00092669
0.000812984
0.000817294
0.000813343
0.000741933
0.000852687
0.000815209
0.000906366
0.000957113
0.000833539
0.000926645
0.000863763
0.000812044
0.000881685
0.000900533
0.000896716
0.000808904
0.000826604
0.000759665
0.000820343
0.000808916
0.000791082
0.000816671
0.000827183
0.000820881
0.000794503
0.000837999
0.000829345
0.000806178
0.000898145
0.000859201
0.000959437
0.000787605
0.00088181
0.000812767
0.000842082
0.000841645
0.000821275
0.00087837
0.000802538
0.000947389
0.000946668
0.000911045
0.000963834
0.000839414
0.000977741
0.000844639
0.000916708
0.00131593
0.00468465
0.00460279
0.00122405
0.000882663
0.00081931
0.000839649
0.000917071
0.000883411
0.000865077
0.000944447
0.000895148
0.000830063
0.000786222
0.000901092
0.000826003
0.000847648
0.000932314
0.000933428
0.000768727
0.000788987
0.000918066
0.000919352
0.000884713
0.000793041
0.00077562
0.000806226
0.000824951
0.00091095
0.00090816
0.000914521
0.00094043
0.000930581
0.000899652
0.000851271
0.000903351
0.000907191
0.000912448
0.000891665
0.000878093
0.000905889
0.000899874
0.000930215
0.000942734
0.000882076
0.000836213
0.000860748
0.000858645
0.000875238
0.000943104
0.000964038
0.00082022
0.000910382
0.000820563
0.000902733
0.00082471
0.000891205
0.000965855
0.00086507
0.000940589
0.000905766
0.000877292
0.000917648
0.000887684
0.00128389
0.00462163
0.00473296
0.00123549
0.000903969
0.000815579
0.000898929
0.000932075
0.00078231
0.000817461
0.000924349
0.000906143
0.000889976
0.000878875
0.000910738
0.000843628
0.000797551
0.000821522
0.000800594
0.00078616
0.00079947
0.000836609
0.000837119
0.000834083
0.000838731
0.000873551
0.00085256
0.000812998
0.000914472
0.000897527
0.000850135
0.000828459
0.000820957
0.000793393
0.000886675
0.000848627
0.000780642
0.000859634
0.000819584
0.000829056
0.000831978
0.000806305
0.000802092
0.000794576
0.000855107
0.000861746
0.000845697
0.000866129
0.000826468
0.000804808
0.000811311
0.000831784
0.000808998
0.000838832
0.000861796
0.000862348
0.000865478
0.000946111
0.000806709
0.00087313
0.000885647
0.000881143
0.000962635
0.000907717
0.00126473
0.00470011
0.00471965
0.00123769
0.000855345
0.000832865
0.000891135
0.000844653
0.000812668
0.000888421
0.000906297
0.00082279
0.000804551
0.000800133
0.000827982
0.000789019
0.000790968
0.00080132
0.000840442
0.000861393
0.000807506
0.000821154
0.000777946
0.000775833
0.000826498
0.000826018
0.00079039
0.000790526
0.000769291
0.000779534
0.000783624
0.000810708
0.000761857
0.000792877
0.000823316
0.000844123
0.000873763
0.000840627
0.000777974
0.000792667
0.000775241
0.000785463
0.000843266
0.00082265
0.000833661
0.000922232
0.000901972
0.000924361
0.000868691
0.000949723
0.000838176
0.000846479
0.000928497
0.000834323
0.000860527
0.000867881
0.000960169
0.000934973
0.000844595
0.000805129
0.000803533
0.000972246
0.000948514
0.000919964
0.00123392
0.00470059
0.00469736
0.00123594
0.000894895
0.000922462
0.000970832
0.00081137
0.000917231
0.000850148
0.000814557
0.000833221
0.000758458
0.000766332
0.000759978
0.000762097
0.000783508
0.000824379
0.000923749
0.000822999
0.000839111
0.000810386
0.00077144
0.000780426
0.000795278
0.000811694
0.000789585
0.000895381
0.000841838
0.000852296
0.000844738
0.00084129
0.000829797
0.000841382
0.00079588
0.000839049
0.000826245
0.000839601
0.000864998
0.00088217
0.00078373
0.000835091
0.000777492
0.000810643
0.000828604
0.000788376
0.000814504
0.000802046
0.00081074
0.000783712
0.00077905
0.000806465
0.000808799
0.000888667
0.000900458
0.000922184
0.000828003
0.000886473
0.000865923
0.000940048
0.00092284
0.000947809
0.00092494
0.000888092
0.00126067
0.00463917
0.00468357
0.00127338
0.000869674
0.000913056
0.000886009
0.00089089
0.000954994
0.000826901
0.000841874
0.000793853
0.000781127
0.000775831
0.000909761
0.000810999
0.000778495
0.000889092
0.00082395
0.000836805
0.000823472
0.000824315
0.000808536
0.000786045
0.000832314
0.00090327
0.000834433
0.000918073
0.000881886
0.000890856
0.000842938
0.000995911
0.000912064
0.000950427
0.000919015
0.00102083
0.000873238
0.00089152
0.000982808
0.000982932
0.000985986
0.000849832
0.000872997
0.000813735
0.000849503
0.00083304
0.000802387
0.000774055
0.000858384
0.000755573
0.000831756
0.000800369
0.000755161
0.000786582
0.000827721
0.000912102
0.000827994
0.000822658
0.000871721
0.000833836
0.000864205
0.000869912
0.00088743
0.000893547
0.00128421
0.00464657
0.0045785
0.00119266
0.000820618
0.000893594
0.000893588
0.00097594
0.000854725
0.000828283
0.000781078
0.000779251
0.00078094
0.000876286
0.000841283
0.00083409
0.000823859
0.000837795
0.00083096
0.000855418
0.000887083
0.000875087
0.000991177
0.000881767
0.000854216
0.000993697
0.000938436
0.00101709
0.00098191
0.00105808
0.0009239
0.000893929
0.000887419
0.000868115
0.000872445
0.000923266
0.000862648
0.00100028
0.000824469
0.000868122
0.000930095
0.000910397
0.000861356
0.000884875
0.000943211
0.000970822
0.00100384
0.000823557
0.000855776
0.000837231
0.000763847
0.000753881
0.000842758
0.00077405
0.000799003
0.000815844
0.000854555
0.000829598
0.000851162
0.000862008
0.000861625
0.000915042
0.000876333
0.000849145
0.00120567
0.00467254
0.00459368
0.00122515
0.000957912
0.000953858
0.00100889
0.000944923
0.000803678
0.000829253
0.000848564
0.000797433
0.000790238
0.000952202
0.000873373
0.000836568
0.000847643
0.00083305
0.000895011
0.000883156
0.000967249
0.000885558
0.00095305
0.000982371
0.000897337
0.000950104
0.000911324
0.000946109
0.000936066
0.000914983
0.000902548
0.000923208
0.000950307
0.000867887
0.000954861
0.00111518
0.000929224
0.000878618
0.000997566
0.000950572
0.000988071
0.00091926
0.00090664
0.000941773
0.000891236
0.00080819
0.000835472
0.000860293
0.000968693
0.00099495
0.000839798
0.000762375
0.000809329
0.000836226
0.000785053
0.000858527
0.000823774
0.000808859
0.000914397
0.000844891
0.000886986
0.000859829
0.000870987
0.000944354
0.00116676
0.0046779
0.00457835
0.0011959
0.000986392
0.000845588
0.000892197
0.00091064
0.000794004
0.000771227
0.000767983
0.00083344
0.000907417
0.000883756
0.000877888
0.000879123
0.00089384
0.000921928
0.000914264
0.000944824
0.000985488
0.000953832
0.000975548
0.000934854
0.000977065
0.000970047
0.00097145
0.000953207
0.000918922
0.00091173
0.000916919
0.000926205
0.000897194
0.00090002
0.000904479
0.00094748
0.000943193
0.000901606
0.000930814
0.000896205
0.000927586
0.000856803
0.000871852
0.000939875
0.000917815
0.000946588
0.000893824
0.000934048
0.000844536
0.000866181
0.000966278
0.000833837
0.00079574
0.000805181
0.000797742
0.000787914
0.000851899
0.000892748
0.000867284
0.000867674
0.000915605
0.000900883
0.000874744
0.000868128
0.0011784
0.00468729
0.00457359
0.00121575
0.000867255
0.000940805
0.000825542
0.000907471
0.000843735
0.000781351
0.000746665
0.000806103
0.000840417
0.000823468
0.000872421
0.000891793
0.000927634
0.000932439
0.000864763
0.000840597
0.000962948
0.00095232
0.000956977
0.000936436
0.00093279
0.000924291
0.00093512
0.000925641
0.000951269
0.000907641
0.000954886
0.00097576
0.000941136
0.000937758
0.000915256
0.00096661
0.000967863
0.000905136
0.000920081
0.000896947
0.000915449
0.00095602
0.000935948
0.000911132
0.000879895
0.000882614
0.000966054
0.00100015
0.000938836
0.000911385
0.000949637
0.00097428
0.000834509
0.000795593
0.000790446
0.00080465
0.00085178
0.000825847
0.000912507
0.000800294
0.000807182
0.000899045
0.000948133
0.00099829
0.0012384
0.00463699
0.00458047
0.00124364
0.000885556
0.000832978
0.000887816
0.000948906
0.00083216
0.000813931
0.000831948
0.000881942
0.000833692
0.000871686
0.000901743
0.000935121
0.000884394
0.000919651
0.000952823
0.000938085
0.000926058
0.000977513
0.000920876
0.000967178
0.000940061
0.000940633
0.000938683
0.000933535
0.000956816
0.000838571
0.000952272
0.000939507
0.000907943
0.00084989
0.000913334
0.000918634
0.000935584
0.000915312
0.000966797
0.000942345
0.00097702
0.000943237
0.000910025
0.000931896
0.000953697
0.000948649
0.000893276
0.000938245
0.000976
0.000933696
0.000851878
0.000884972
0.000976927
0.000797583
0.000809172
0.000829152
0.00085389
0.000841654
0.000839141
0.000868856
0.000838519
0.000841796
0.000895123
0.000902785
0.00122166
0.0046391
0.00455292
0.00125942
0.000822439
0.000764688
0.000869189
0.000891018
0.000789545
0.00078408
0.000847566
0.00080567
0.000853437
0.000974277
0.0010466
0.000917976
0.000972308
0.000979104
0.00102819
0.00091599
0.000911164
0.000996677
0.000985269
0.000921822
0.000980005
0.00100615
0.000930938
0.000949218
0.000901189
0.00087381
0.000980501
0.000924878
0.000925878
0.000926262
0.000963663
0.000952987
0.000903325
0.000877724
0.000923186
0.000939817
0.000977699
0.000943559
0.000928985
0.000925945
0.000948277
0.000936398
0.000940365
0.000878804
0.0008756
0.00100838
0.00091828
0.000920859
0.000961601
0.000858857
0.000818381
0.000777607
0.000882908
0.000843102
0.000819395
0.000819142
0.000915477
0.000971873
0.000860164
0.000987079
0.00125987
0.00468246
0.00456877
0.00124282
0.000795369
0.000774004
0.000930059
0.000864771
0.000804076
0.000765263
0.000791621
0.000817807
0.000849275
0.000904727
0.000998888
0.000972905
0.000948907
0.000937794
0.00092029
0.000911891
0.000923033
0.000893457
0.000909682
0.000959996
0.000972706
0.000968584
0.000995034
0.000854684
0.000845028
0.000957009
0.000967085
0.000935729
0.000950535
0.000959626
0.000886329
0.000920129
0.000894814
0.000946858
0.000877135
0.000959749
0.000908662
0.000861093
0.00093428
0.000959808
0.00092148
0.00096389
0.000880684
0.000916235
0.00092459
0.00100976
0.00100411
0.000841069
0.000973659
0.000855511
0.000827393
0.000832637
0.000782807
0.000810178
0.000821279
0.000856236
0.000822066
0.000874509
0.000858285
0.000844352
0.00125686
0.00459651
0.00460779
0.00122273
0.000842755
0.000818965
0.00092971
0.000836459
0.000794988
0.000758567
0.0008364
0.000840991
0.000840373
0.000890151
0.000933783
0.000880266
0.000947017
0.000913562
0.000860294
0.000906179
0.000896256
0.00088483
0.000901374
0.000909465
0.000890681
0.00100363
0.00100301
0.000998548
0.00094743
0.000896594
0.000929841
0.000966053
0.000880821
0.000866824
0.000854202
0.000912752
0.000933831
0.000932885
0.000977861
0.000866482
0.000909131
0.000961374
0.000907854
0.000888431
0.000941763
0.000972593
0.00091088
0.000887469
0.000897209
0.000902932
0.000911229
0.000989614
0.000947753
0.000909138
0.000906693
0.000792893
0.000850849
0.000820435
0.0008283
0.000809999
0.000806776
0.000864481
0.000870537
0.000813845
0.00125021
0.00460556
0.0045778
0.0011806
0.000765292
0.000851881
0.000954046
0.000921356
0.000827647
0.000760623
0.00082284
0.000852002
0.000921017
0.000960593
0.000920733
0.000954034
0.000898367
0.000904672
0.000904974
0.000857642
0.00089771
0.000910859
0.000904943
0.000906893
0.000893491
0.000957387
0.00100805
0.000969465
0.000939319
0.000851532
0.000927388
0.000973685
0.000982181
0.000985889
0.000975558
0.000980309
0.000980673
0.000889613
0.000868564
0.000927508
0.000820724
0.000903412
0.000915978
0.000933265
0.000903147
0.000951397
0.00095244
0.000911526
0.000927204
0.000930123
0.00105083
0.000958438
0.000924194
0.000896772
0.000873692
0.000814472
0.000860017
0.000921582
0.000859007
0.000795291
0.000867666
0.000946045
0.000870346
0.000895055
0.00128434
0.00455565
0.00457844
0.00116673
0.000898814
0.000802181
0.000844237
0.000785366
0.000792979
0.000751976
0.000830125
0.000848013
0.000907879
0.000967645
0.000872442
0.000947197
0.000911552
0.000897996
0.000921879
0.000898868
0.000915228
0.000874567
0.000915421
0.000841533
0.000831742
0.000944591
0.00100189
0.000975801
0.000989409
0.00100931
0.000909748
0.000923117
0.00101391
0.000964672
0.000941174
0.000918583
0.000989047
0.000922852
0.00097211
0.000915344
0.000890131
0.000873898
0.00093722
0.00093885
0.000923014
0.00092776
0.00096107
0.000943149
0.000886821
0.000906414
0.00101452
0.000983996
0.000876636
0.000923069
0.000763909
0.000852716
0.00087472
0.000910109
0.000844596
0.000862566
0.000911009
0.000997295
0.000964725
0.000934156
0.00130512
0.00458519
0.00454715
0.00121424
0.00090079
0.000872263
0.000919356
0.000773067
0.000766723
0.000741376
0.000784325
0.000894975
0.00101865
0.000998836
0.000926992
0.000916133
0.000849944
0.000917343
0.00089836
0.000890833
0.000904639
0.000866635
0.000840184
0.000838886
0.000838152
0.000887069
0.000925927
0.00097426
0.000985099
0.000951976
0.000928958
0.000953236
0.000975989
0.00102116
0.000925121
0.000990723
0.000982319
0.000971495
0.000974344
0.000940791
0.000902288
0.000872464
0.000868203
0.000963977
0.000911462
0.000929069
0.000913214
0.000955019
0.000966319
0.000929346
0.000869825
0.000898517
0.000897202
0.000939063
0.000773843
0.00082807
0.000885252
0.000807199
0.000839784
0.000853657
0.000833388
0.000886123
0.000932817
0.00089662
0.00126706
0.00457996
0.0045548
0.00125911
0.000929392
0.000990474
0.00090259
0.000776283
0.000776177
0.000772374
0.000910812
0.000887198
0.000937159
0.000989087
0.00093014
0.000910991
0.000930276
0.000915198
0.000908639
0.00090879
0.000893938
0.000850045
0.000850734
0.000870393
0.00098546
0.000962622
0.000989422
0.00097913
0.00098071
0.000902553
0.000935022
0.000927847
0.000952884
0.00091387
0.000974379
0.00103491
0.000993339
0.000984487
0.000975937
0.00100086
0.000930137
0.000897465
0.000903982
0.000990538
0.000874284
0.000854245
0.000882105
0.000888238
0.000922466
0.00088542
0.000939555
0.000936463
0.000887573
0.000934935
0.000759998
0.000806569
0.000833235
0.000810501
0.000889124
0.000863692
0.00086953
0.000894848
0.000870155
0.000926435
0.00119822
0.00456865
0.00457573
0.00121526
0.000890509
0.000813115
0.00087167
0.000866233
0.000795959
0.000810395
0.00085844
0.000871576
0.000939909
0.000973531
0.000970983
0.000938582
0.00100159
0.00091239
0.000905093
0.000881818
0.000889197
0.000855521
0.000909624
0.000888875
0.000958377
0.00103025
0.000968714
0.000920241
0.000926651
0.000953749
0.000939796
0.000931207
0.00093058
0.000956439
0.000966592
0.000959554
0.000988018
0.000971407
0.000984644
0.00100408
0.00096287
0.000943072
0.000913126
0.000988478
0.000960984
0.000947096
0.000937256
0.000900315
0.000912769
0.000921988
0.000984037
0.00095153
0.000895435
0.000858724
0.000783263
0.000785681
0.00081243
0.000764027
0.000911604
0.000813344
0.000800737
0.000847713
0.000873745
0.000966065
0.00130603
0.00456774
0.00456179
0.00126475
0.000863043
0.000790278
0.000914553
0.000866893
0.000799278
0.000754346
0.000953698
0.000827807
0.000949499
0.000992012
0.000956179
0.000923648
0.00100833
0.00090958
0.000902262
0.000877212
0.000886679
0.000858282
0.000884425
0.000955251
0.00100934
0.00102836
0.00100357
0.000907373
0.000910178
0.000909731
0.000939823
0.000916345
0.000920359
0.000931453
0.000950962
0.000898976
0.00102608
0.00100469
0.000985797
0.000983435
0.000992154
0.00093873
0.00090067
0.000982187
0.000955782
0.000990016
0.000878875
0.000905219
0.000909591
0.000891682
0.000922669
0.000948339
0.0008797
0.000933888
0.000779162
0.0008079
0.000813266
0.000793029
0.000913059
0.000896324
0.000914279
0.000877111
0.000891789
0.000989471
0.00129107
0.00456969
0.00473484
0.00125318
0.000878867
0.000880721
0.000907345
0.00095454
0.000781569
0.00082855
0.000785519
0.000793642
0.000995489
0.000982639
0.000969119
0.000969373
0.00100903
0.000936552
0.000921167
0.000883456
0.000828561
0.000848591
0.000946241
0.000951796
0.00103964
0.000993183
0.00102179
0.000898777
0.000981967
0.000961493
0.000927712
0.000915512
0.000900832
0.000915243
0.000949045
0.000940374
0.000976551
0.000981576
0.000983823
0.000980785
0.000933295
0.000982056
0.00090644
0.000950144
0.000940139
0.000898129
0.000904236
0.000870887
0.000877621
0.000875949
0.000982734
0.000981827
0.000873494
0.000925782
0.000794063
0.000815506
0.000921979
0.000827785
0.000884478
0.000864582
0.000905767
0.000837854
0.000856277
0.000930165
0.00124517
0.00468567
0.00467185
0.00129049
0.000917945
0.000867467
0.000949452
0.000889236
0.000846219
0.000811442
0.0010124
0.000945801
0.000952051
0.000890227
0.000922975
0.000870993
0.000983469
0.000998436
0.000914985
0.000856737
0.000872141
0.000920956
0.000997176
0.00105114
0.00100143
0.00101424
0.000932795
0.000942491
0.000930089
0.000887064
0.000926697
0.00090161
0.000926575
0.000948987
0.000946669
0.000954804
0.000997461
0.000949191
0.000990826
0.000937366
0.000945431
0.000973521
0.000896122
0.000962323
0.000870796
0.000903158
0.000996865
0.00102457
0.000898193
0.000881764
0.000950188
0.000986651
0.000929817
0.000880531
0.000818099
0.00080525
0.000850606
0.000855164
0.000920173
0.000893797
0.00092167
0.00096259
0.000903036
0.000910794
0.0012861
0.0046905
0.00461201
0.00129182
0.000885659
0.000825708
0.000854378
0.000806293
0.000900204
0.000917014
0.000987432
0.000940979
0.000958356
0.000911847
0.000967582
0.000845966
0.00102957
0.00102326
0.00105297
0.00088504
0.000879528
0.000940252
0.000982534
0.000994192
0.0009948
0.00090385
0.00094433
0.000924418
0.000987647
0.000848137
0.000950711
0.000947046
0.00091974
0.000949112
0.000964538
0.000982238
0.000997534
0.000964939
0.000988407
0.000989398
0.000959419
0.000926295
0.000911457
0.000964777
0.000908491
0.00093496
0.000977699
0.000954507
0.000885012
0.000872146
0.000955102
0.000907753
0.000927225
0.000903639
0.000752563
0.000773698
0.000904625
0.000868345
0.000884275
0.000808089
0.000814863
0.000909872
0.000874153
0.000963619
0.00121835
0.00456935
0.00464427
0.00126696
0.000892103
0.000861399
0.000872957
0.000950632
0.000848348
0.000834316
0.000832226
0.000921703
0.000917441
0.000952837
0.000974331
0.000829039
0.000907529
0.00100207
0.000978171
0.0010044
0.000988265
0.000941756
0.000938592
0.000922805
0.00093763
0.000951333
0.000921651
0.000921262
0.000927453
0.000902685
0.000949227
0.000931232
0.000898118
0.000959153
0.000931406
0.00101957
0.00101643
0.00095472
0.000991523
0.000983476
0.000923761
0.000957586
0.000968969
0.000992147
0.000937541
0.000940573
0.000959283
0.000891302
0.000890262
0.000931716
0.000927461
0.000889098
0.000876446
0.00094085
0.000780698
0.00075705
0.000842589
0.000868229
0.000880225
0.000903642
0.000869212
0.000915743
0.000904396
0.000945457
0.00120517
0.00467922
0.00460516
0.00126915
0.000941074
0.000882358
0.000912685
0.000828061
0.000861609
0.000818607
0.00083352
0.000894875
0.000930863
0.000920432
0.000938155
0.000931684
0.000885682
0.000950024
0.00103356
0.00102901
0.000978136
0.00102473
0.000999556
0.000899651
0.000903968
0.000965882
0.000972874
0.000932433
0.000966825
0.000909795
0.000937384
0.000927576
0.000948431
0.000953995
0.000943582
0.000913313
0.000960685
0.00094755
0.000990264
0.000918674
0.00088278
0.000986238
0.000949781
0.000873352
0.00091657
0.000933979
0.000988964
0.000863683
0.001029
0.000948034
0.000938404
0.000816999
0.00090248
0.000877403
0.000786165
0.000920724
0.000862757
0.000883435
0.000881795
0.000937677
0.000845099
0.000904856
0.000878918
0.000929617
0.00117662
0.00466433
0.00461243
0.00124159
0.000955655
0.000949775
0.000858863
0.000797035
0.000892927
0.000762755
0.000800139
0.000831385
0.000874041
0.000969289
0.000936262
0.000857838
0.000957044
0.000881043
0.00102259
0.000980843
0.000967018
0.000912881
0.000891083
0.000934297
0.000908534
0.0009018
0.000905818
0.000937403
0.000946295
0.000914628
0.000931224
0.000946155
0.000958411
0.000950646
0.000962161
0.00100105
0.000931227
0.000949232
0.000938577
0.000940034
0.000983083
0.00100387
0.000966528
0.000917654
0.000935985
0.000954197
0.000984694
0.000892548
0.000909082
0.000839747
0.000941763
0.000949379
0.000849154
0.000893715
0.00080264
0.000847036
0.000878405
0.00088275
0.000916278
0.000896819
0.000865873
0.000785925
0.00089974
0.000920732
0.00120754
0.00465615
0.0045879
0.00116573
0.000927664
0.000872997
0.000845802
0.000797324
0.000900025
0.000850533
0.000810291
0.000826696
0.000868837
0.000945868
0.000924755
0.00090254
0.000916255
0.000940195
0.000864481
0.000844491
0.000900833
0.000892733
0.000932554
0.000970456
0.000921711
0.000914268
0.00088298
0.000912565
0.000923981
0.000921704
0.000960473
0.000949393
0.000939118
0.000884175
0.001007
0.000941449
0.000945076
0.000921078
0.000920824
0.00098393
0.000945075
0.000983359
0.00100924
0.000904966
0.000950358
0.000965697
0.00102663
0.000908847
0.00103582
0.000985832
0.00089924
0.00087161
0.00084357
0.000870896
0.000804833
0.000845864
0.000854334
0.000916995
0.000867867
0.000839775
0.000854763
0.000891612
0.00088415
0.000909455
0.00119758
0.00465669
0.0046262
0.00121808
0.000936622
0.000824147
0.000807381
0.000784689
0.000873397
0.000885203
0.000898701
0.000801514
0.0008611
0.000912499
0.00098624
0.000938517
0.000974885
0.000931441
0.000941253
0.000957715
0.00100487
0.000970117
0.000906373
0.000929279
0.000934399
0.000898454
0.000895887
0.000921911
0.000957433
0.000949977
0.000953234
0.000952488
0.000949036
0.000892116
0.000982015
0.000956693
0.000945402
0.000957392
0.000948242
0.000942639
0.000984682
0.000984578
0.000935247
0.000932941
0.000990795
0.00100025
0.000874255
0.000854351
0.0010052
0.000920519
0.00088642
0.000808583
0.000844299
0.000887219
0.000817491
0.000842927
0.000868299
0.000950842
0.000891742
0.000870659
0.000863972
0.000892709
0.000879576
0.000983886
0.00131911
0.00467838
0.00460836
0.00123081
0.000924164
0.000862083
0.000760585
0.000873893
0.000852098
0.00083273
0.000876678
0.000810076
0.000924873
0.000882528
0.000928814
0.00089492
0.000972678
0.000909077
0.000874534
0.000872866
0.00096756
0.001003
0.000943779
0.000946808
0.000937037
0.000919107
0.000913771
0.000960708
0.000956723
0.00090994
0.000940505
0.000913211
0.00100136
0.00099762
0.00095491
0.000931735
0.000900241
0.000955695
0.000948813
0.000913998
0.000956833
0.000999985
0.000911277
0.00093727
0.000960745
0.000983185
0.000904799
0.000851131
0.000930133
0.000911763
0.000882112
0.000868571
0.00085628
0.000902238
0.000786922
0.000777725
0.000767691
0.000844811
0.000878948
0.000829158
0.000836269
0.000839346
0.000919706
0.0010077
0.0012423
0.00468734
0.00460237
0.00127339
0.00090513
0.000836386
0.000771438
0.000798583
0.000847983
0.000825991
0.000901762
0.000793334
0.000864362
0.000925222
0.000880826
0.000943807
0.000923148
0.000922088
0.000925207
0.000909126
0.000951143
0.000897158
0.0010435
0.000953784
0.00095761
0.000947978
0.000942507
0.000947179
0.00100128
0.00102383
0.000998026
0.001027
0.000944895
0.000953198
0.000959813
0.000915188
0.000939789
0.000936655
0.000929498
0.000939291
0.00093102
0.000911073
0.000880842
0.00100916
0.000980435
0.000998954
0.000941185
0.00098422
0.000879137
0.000954024
0.000949103
0.000852858
0.000858003
0.000851486
0.000765994
0.000820133
0.000814664
0.000841475
0.000879069
0.000848273
0.000837569
0.000911125
0.000916926
0.000972609
0.00129773
0.00456608
0.00458509
0.00124497
0.000887916
0.00083158
0.000795762
0.000789889
0.000837076
0.000832816
0.000910798
0.000850132
0.000924929
0.00093372
0.000912499
0.000904901
0.000934978
0.000922552
0.000893518
0.000879713
0.000990957
0.000997259
0.000978282
0.00102937
0.000993026
0.000981328
0.000976359
0.000943486
0.000926944
0.000959538
0.000946232
0.000940274
0.000952403
0.000940069
0.000908074
0.000967097
0.00095019
0.000947436
0.000935809
0.000935851
0.000936481
0.000890421
0.000945971
0.000972577
0.000994901
0.000912313
0.000877693
0.00100801
0.000905168
0.000917425
0.000978933
0.000865045
0.000936866
0.000888894
0.000912774
0.000853509
0.000845971
0.000924515
0.000927155
0.000927451
0.000847472
0.000885036
0.00092016
0.000952043
0.00125616
0.00455189
0.00474066
0.00127287
0.000888944
0.000780346
0.000766187
0.000781311
0.000843921
0.000799157
0.000855165
0.000838216
0.000907951
0.000886901
0.000921875
0.000892718
0.00088879
0.000975547
0.000913491
0.000942723
0.000945033
0.000982918
0.000996992
0.000895717
0.00104783
0.00104144
0.00101016
0.000974009
0.000932865
0.000958907
0.000925692
0.000917426
0.000925608
0.000957695
0.000918534
0.000940603
0.000941101
0.000938852
0.000942404
0.000912937
0.000905719
0.000909242
0.000962164
0.00100154
0.000980443
0.000970749
0.000872353
0.00100196
0.000994593
0.000941757
0.000860296
0.000843421
0.000961783
0.000921031
0.000889593
0.000941114
0.000791554
0.000872861
0.000877876
0.000872883
0.000870323
0.000876695
0.00092926
0.000971427
0.00127402
0.00456171
0.00469336
0.00131005
0.000943546
0.000817253
0.00085096
0.000771107
0.000836565
0.000790412
0.000840929
0.000899474
0.000953538
0.000926643
0.000884029
0.000917703
0.000929841
0.000926093
0.000921593
0.000905112
0.0009438
0.000980649
0.000987474
0.00100129
0.00100938
0.000997059
0.000993424
0.000998973
0.000949012
0.000997864
0.000925693
0.00096445
0.000921774
0.00098707
0.000955358
0.000944388
0.000931438
0.00095586
0.00093785
0.000929371
0.000911921
0.001015
0.000960706
0.000992936
0.000948232
0.00095165
0.00085302
0.000912299
0.000895872
0.000929122
0.000815523
0.000924897
0.00095947
0.000938762
0.00081953
0.000891721
0.000846739
0.000846572
0.000891529
0.000909945
0.00089642
0.000887652
0.000877869
0.00094884
0.00128286
0.00456731
0.00467856
0.00125755
0.000946115
0.000817097
0.000848747
0.000811741
0.000891252
0.00079015
0.000843028
0.000811271
0.000939119
0.000960015
0.000986775
0.000971
0.00095226
0.000949658
0.000909153
0.000878056
0.000884903
0.000931099
0.000983163
0.000969293
0.000972916
0.000972725
0.000976973
0.000977248
0.000962497
0.000918007
0.00089485
0.000974687
0.000940036
0.000928269
0.000957685
0.000947725
0.00100356
0.000915388
0.000950034
0.000919155
0.00092632
0.000939236
0.000998412
0.000995591
0.00092394
0.000985838
0.000984895
0.00090048
0.000970934
0.000903463
0.000844666
0.000875024
0.000895013
0.000888487
0.00083785
0.000836822
0.000820416
0.000870257
0.000897009
0.000936349
0.000887413
0.000967346
0.000918977
0.00102183
0.00133456
0.00467045
0.00459425
0.00125604
0.00096382
0.000909869
0.000769935
0.000805852
0.000867892
0.00077078
0.000896856
0.00080344
0.000830439
0.000956349
0.000959985
0.000949487
0.000917464
0.000869831
0.000947845
0.000903107
0.000906532
0.00100927
0.000968415
0.000929743
0.000987921
0.000982605
0.000984422
0.000971734
0.00097451
0.0009189
0.00097646
0.00093159
0.000908982
0.000946436
0.000954612
0.000917761
0.000899295
0.00091402
0.000905016
0.000934869
0.000941093
0.000966396
0.000985101
0.000905275
0.000877384
0.000843452
0.00101893
0.000982398
0.000942325
0.000977209
0.000815534
0.000921358
0.000907228
0.000810285
0.000802608
0.000831026
0.000846637
0.000911711
0.000836474
0.000919892
0.000853892
0.000907119
0.000941398
0.000965549
0.00130703
0.00467056
0.00459501
0.00124304