/*--------------------------------*- C++ -*----------------------------------*\
  =========                 |
  \\      /  F ield         | OpenFOAM: The Open Source CFD Toolbox
   \\    /   O peration     | Website:  https://openfoam.org
    \\  /    A nd           | Version:  11
     \\/     M anipulation  |
\*---------------------------------------------------------------------------*/
FoamFile
{
    format      ascii;
    class       volScalarField;
    location    "37";
    object      nut;
}
// * * * * * * * * * * * * * * * * * * * * * * * * * * * * * * * * * * * * * //

dimensions      [0 2 -1 0 0 0 0];

internalField   nonuniform List<scalar> 
262144
(
0.00333576
0.00458424
0.00469136
0.00462448
0.00456013
0.0046855
0.00464997
0.00462229
0.00464324
0.00465471
0.0046912
0.00457049
0.00466486
0.00465667
0.00465389
0.00455693
0.00467404
0.00466528
0.00453684
0.00456878
0.00454179
0.00464063
0.00464182
0.00464385
0.00464435
0.00462389
0.00462368
0.00457733
0.004552
0.00453952
0.00453573
0.00453803
0.0045374
0.00453265
0.00453758
0.00454473
0.00454964
0.00453656
0.00453064
0.00453204
0.00452895
0.00453733
0.00454009
0.00466931
0.00468019
0.00467438
0.00466432
0.00467717
0.00468074
0.00467894
0.00468687
0.00467537
0.00465997
0.00456696
0.00454611
0.0045638
0.00472411
0.00465097
0.0045756
0.00457472
0.00467169
0.00466036
0.00463587
0.00326095
0.00457825
0.0129421
0.0120319
0.0111864
0.0115727
0.0107768
0.0111386
0.0105805
0.0104769
0.0111013
0.0111655
0.0114304
0.0110606
0.0110325
0.0114539
0.0112679
0.0112166
0.0105908
0.0110433
0.0116007
0.0115598
0.0116459
0.011487
0.0115502
0.0107151
0.0117782
0.0116708
0.0108075
0.0120351
0.0107401
0.010825
0.0111865
0.0112744
0.0113721
0.0112836
0.0113014
0.0111982
0.0110356
0.0113855
0.0113279
0.01139
0.0115784
0.0115188
0.0106419
0.0108027
0.0112081
0.0112216
0.0118435
0.0112528
0.0105887
0.011439
0.0101398
0.0110462
0.0109415
0.0104871
0.0111374
0.0105505
0.011756
0.011724
0.0111119
0.0115747
0.0116025
0.0120034
0.00458617
0.00468642
0.0116949
0.00850276
0.00820127
0.0079536
0.0081545
0.00817736
0.00796618
0.00773566
0.00898631
0.00805454
0.00838798
0.00750777
0.00710977
0.00758997
0.00794833
0.00835386
0.00904935
0.00848831
0.00849949
0.00796568
0.0087101
0.00804101
0.00822009
0.00751246
0.00759992
0.00805823
0.0078122
0.00893753
0.00880464
0.00877034
0.00873119
0.00934271
0.00818388
0.00953712
0.00956022
0.00892417
0.00925233
0.00872353
0.00935529
0.00991706
0.00865793
0.00895127
0.00904673
0.00884356
0.00889385
0.00934088
0.00839943
0.00780372
0.00944802
0.00836019
0.00847563
0.00748192
0.00810263
0.00842956
0.0084229
0.00835171
0.00827035
0.00885097
0.00947546
0.00878125
0.00955206
0.0115797
0.00455946
0.00464787
0.0112563
0.00920702
0.0078744
0.00803233
0.00892159
0.00784391
0.0085676
0.00902116
0.00837257
0.00856228
0.0076951
0.00691932
0.0083999
0.00919244
0.00801461
0.00791605
0.00946131
0.00815767
0.008592
0.00758283
0.00707537
0.00970811
0.00977301
0.00947737
0.00782735
0.0083943
0.0071237
0.00928466
0.00869759
0.00702727
0.00693442
0.00723542
0.00765451
0.00707506
0.00757983
0.00718994
0.00801975
0.00778143
0.00773704
0.00748719
0.00762996
0.00781606
0.0092447
0.00934441
0.00937684
0.00888392
0.00773563
0.00746141
0.00902547
0.00762432
0.00823732
0.00782983
0.00836556
0.00744116
0.0082372
0.00784449
0.00780521
0.00861488
0.00830322
0.00884496
0.00898328
0.0103962
0.00455443
0.00455231
0.0112335
0.00787993
0.00783632
0.00775615
0.00815028
0.00866189
0.0088997
0.00815885
0.00771256
0.00863189
0.00844402
0.0085618
0.00833107
0.0090577
0.00717583
0.00718397
0.00715846
0.00682875
0.00781428
0.00752283
0.0086889
0.00938301
0.00751435
0.00868373
0.00836988
0.00698667
0.00832553
0.00817255
0.00875195
0.0073006
0.00760373
0.00687914
0.00745332
0.0072611
0.00715578
0.00740728
0.0074246
0.00734219
0.00710082
0.00744079
0.0073931
0.00732257
0.00890573
0.00870091
0.0091699
0.00718746
0.00843085
0.00738841
0.00769383
0.00825875
0.00740904
0.00806222
0.007327
0.00905186
0.00909068
0.00842335
0.00900133
0.0076958
0.00922276
0.0079993
0.00863855
0.0113123
0.00464187
0.00456143
0.0102677
0.00797719
0.00751846
0.00829112
0.00869709
0.008061
0.00808587
0.00904778
0.00869279
0.00802263
0.00723694
0.00867626
0.00826968
0.00823372
0.00891628
0.00941082
0.00687775
0.00735386
0.00873288
0.00859116
0.00818154
0.00728421
0.00711619
0.00761992
0.00774827
0.00881297
0.00849888
0.00854634
0.00897904
0.00892885
0.00845692
0.00799872
0.0086806
0.00866859
0.0088152
0.008565
0.00844651
0.00865531
0.0087057
0.009015
0.00905859
0.00832407
0.00829845
0.00851431
0.00843745
0.00868595
0.00900708
0.00891347
0.00815212
0.00877844
0.00759512
0.00824365
0.00780878
0.0082655
0.00959587
0.00810691
0.00894503
0.00898958
0.00816111
0.00838556
0.00842064
0.0114567
0.00458057
0.00469155
0.0112438
0.00869256
0.00750942
0.00914139
0.00864116
0.007038
0.00785736
0.00879832
0.00898706
0.0087899
0.00861508
0.00909639
0.00767741
0.00718574
0.00789755
0.00765387
0.00752664
0.00762721
0.0079438
0.00791751
0.00787615
0.00804548
0.00845254
0.00820047
0.00792959
0.00865482
0.00855871
0.00799922
0.00783682
0.0077575
0.00747824
0.00823787
0.00822885
0.00726629
0.00810881
0.00765396
0.00778544
0.00781633
0.00736585
0.00738388
0.0072816
0.00836531
0.00847476
0.00784572
0.0080457
0.00817022
0.00762031
0.00781055
0.00806542
0.00772354
0.00798813
0.0081484
0.00845343
0.00816703
0.00929048
0.00756697
0.00789094
0.0084143
0.00783177
0.00899135
0.00842165
0.0110299
0.00465921
0.00467927
0.0104333
0.00769869
0.00772943
0.00882464
0.00787335
0.00761388
0.00874687
0.00891517
0.00779344
0.00787977
0.00768474
0.00834203
0.00732464
0.00733709
0.00741342
0.00792554
0.0081698
0.00740024
0.00760665
0.00717434
0.00739039
0.00820584
0.00805374
0.00736985
0.0077403
0.00710626
0.00750373
0.0074953
0.00781828
0.00696216
0.00774575
0.00750401
0.00829768
0.00807153
0.00815636
0.00747434
0.00758658
0.00736941
0.00739171
0.00796269
0.00748024
0.00780534
0.00886956
0.00864064
0.00891106
0.00844951
0.00884743
0.00775054
0.00794739
0.00904283
0.00800586
0.00820267
0.00868243
0.00905971
0.00885843
0.00797125
0.00762802
0.00733742
0.00879069
0.00858758
0.00862209
0.0106798
0.0046606
0.00465785
0.0109059
0.00818484
0.00922149
0.00982398
0.00760956
0.00876823
0.00818715
0.00796905
0.0082163
0.00712927
0.0070954
0.00712523
0.00686356
0.00739747
0.00770918
0.00875102
0.00758233
0.00804443
0.00780917
0.00725755
0.00732046
0.00751748
0.00745736
0.00719053
0.00824343
0.00795135
0.00783152
0.00765061
0.00814414
0.0077532
0.00761349
0.00722717
0.0078111
0.00771049
0.00765702
0.00812156
0.00827758
0.00704213
0.00774452
0.00716028
0.0073399
0.00779732
0.00733038
0.00753883
0.00774078
0.00754507
0.00736854
0.00715897
0.00774491
0.00756575
0.0088802
0.00875858
0.0086347
0.00809843
0.00877675
0.00872277
0.00893205
0.00897287
0.00902796
0.00852333
0.00846972
0.0107298
0.00460009
0.00464475
0.011568
0.00778928
0.00912287
0.0089553
0.0089384
0.00933898
0.0079707
0.00841066
0.00783495
0.00738297
0.00726508
0.008451
0.00745666
0.0073393
0.00828221
0.00766691
0.00785933
0.00763249
0.0077144
0.00758427
0.00717564
0.00754182
0.00826133
0.00819439
0.00858386
0.00870562
0.00833145
0.00768619
0.00946319
0.00855188
0.00879895
0.00887003
0.0100231
0.007819
0.00814485
0.00929745
0.00954832
0.00956493
0.00771454
0.00824968
0.00758762
0.00793542
0.00777766
0.00768614
0.00714745
0.00815292
0.00715571
0.00784097
0.00751327
0.00679864
0.00763025
0.00770369
0.00901861
0.00764247
0.00753624
0.00791363
0.00752043
0.0080145
0.00839754
0.00828461
0.00804445
0.011128
0.00460807
0.00454042
0.010088
0.00740371
0.0086877
0.00885679
0.00972969
0.00860721
0.00817387
0.00745063
0.00734654
0.00729847
0.00819284
0.00782483
0.00762647
0.00780062
0.0076427
0.00775704
0.00811753
0.00844181
0.00831042
0.00918294
0.00824794
0.00780408
0.00933337
0.00892674
0.00992542
0.00920482
0.0106382
0.00859737
0.00887651
0.00828519
0.00802378
0.00789607
0.00905619
0.00785052
0.00924118
0.00752035
0.0079538
0.00855308
0.00851536
0.00814424
0.00825601
0.00938857
0.00890654
0.00950375
0.00775735
0.0082749
0.00788235
0.00740853
0.00712784
0.00791684
0.00729371
0.00775488
0.00767354
0.00808648
0.00766339
0.0084912
0.00841958
0.00851096
0.00877922
0.008046
0.00826665
0.0105484
0.00463398
0.00455607
0.0109558
0.00884783
0.00960081
0.00967501
0.00908487
0.00778657
0.00766227
0.00830284
0.00746835
0.00738388
0.00910373
0.00818767
0.00785108
0.00800522
0.0079209
0.00834787
0.00826612
0.00969533
0.00809737
0.00877096
0.00904258
0.00839197
0.00941959
0.00831742
0.0086465
0.00858704
0.0083462
0.00822749
0.00875732
0.00879808
0.00805777
0.00910805
0.0103459
0.00848183
0.00805189
0.00973165
0.00886887
0.00927066
0.00863449
0.00837954
0.00897832
0.0080977
0.0073501
0.00762891
0.00793886
0.00919402
0.00948293
0.00788503
0.00686237
0.00763384
0.00789669
0.0074897
0.00800847
0.00740279
0.00774801
0.00889509
0.00842138
0.00789832
0.00789455
0.00809957
0.00877499
0.0101799
0.00463984
0.0045413
0.010233
0.00913893
0.00765026
0.00839054
0.00872647
0.00734447
0.00706309
0.00728455
0.00787814
0.00855505
0.00851481
0.00858089
0.00829379
0.00846849
0.00871713
0.00907968
0.0092002
0.00934087
0.00864339
0.00916502
0.00884842
0.00973234
0.00961827
0.00964724
0.00951714
0.00850387
0.00851048
0.00857065
0.00876068
0.00838041
0.00839023
0.00874743
0.00872095
0.00865028
0.00824923
0.00876954
0.00852857
0.00865088
0.00780133
0.00801806
0.00908473
0.00865047
0.00893874
0.00859636
0.00854156
0.00821575
0.00800056
0.00958761
0.00768755
0.00732968
0.00804399
0.00750493
0.0075717
0.00834714
0.00858264
0.00811737
0.00847479
0.00841975
0.00838279
0.0081993
0.00795546
0.0102317
0.00464953
0.00453682
0.0101941
0.00800904
0.00904336
0.00796431
0.00891357
0.00819681
0.00716879
0.00670069
0.00730153
0.00785737
0.00780956
0.00821732
0.00826251
0.00851677
0.00860776
0.00797699
0.00761835
0.00956748
0.00937101
0.00956151
0.00864496
0.00930107
0.00919787
0.00875862
0.00875122
0.00918061
0.0089878
0.00943114
0.00976914
0.0093054
0.00932735
0.00910478
0.0094236
0.00958936
0.00852688
0.00867071
0.00840287
0.0092466
0.00876399
0.00857839
0.00832191
0.00803598
0.00812269
0.00912823
0.00941635
0.00928958
0.00853178
0.00932201
0.00910369
0.0079074
0.00730991
0.00730891
0.00775867
0.00789669
0.00802434
0.00857715
0.00735381
0.0073712
0.00880869
0.0090857
0.00934494
0.0109262
0.00460006
0.00454398
0.0111956
0.00802004
0.00829189
0.00868818
0.00906761
0.008116
0.00777374
0.00771244
0.00829296
0.00766032
0.00865151
0.00844101
0.00858753
0.00815915
0.00836232
0.00940444
0.00900114
0.00854599
0.00933236
0.00876539
0.00886576
0.00873421
0.00875695
0.00875072
0.00868312
0.00942742
0.00772251
0.00929292
0.00907203
0.00873689
0.00784549
0.00837324
0.00847536
0.00925654
0.0090484
0.00966575
0.00935646
0.00972356
0.00863779
0.00879081
0.00888622
0.00872311
0.00881827
0.00827114
0.00875984
0.00939418
0.00847515
0.008398
0.00829478
0.00947455
0.0077042
0.00764016
0.00795468
0.00803441
0.00831212
0.00830097
0.00858053
0.00821278
0.00784064
0.00832568
0.00851378
0.0105533
0.00460244
0.00451672
0.0111577
0.00755899
0.00703107
0.00871245
0.00879989
0.00755813
0.00737509
0.00832576
0.00736735
0.00806512
0.0088928
0.0103118
0.00850076
0.00896459
0.00956682
0.00958178
0.00866519
0.00878382
0.00926854
0.00935102
0.00850412
0.00973825
0.00928247
0.00903873
0.00919681
0.00890641
0.00831609
0.00959154
0.00880304
0.0087868
0.00862105
0.00881165
0.0087918
0.00818059
0.00814456
0.00858094
0.00921228
0.00966928
0.00930726
0.00926948
0.00910481
0.00892955
0.00864952
0.00866726
0.00820612
0.00820258
0.00971628
0.00848871
0.00845788
0.00964135
0.00805485
0.00761465
0.00725212
0.00830481
0.00805602
0.0080699
0.00720835
0.00860786
0.00885688
0.00795796
0.00920014
0.0110383
0.00464592
0.0045327
0.0112625
0.00717912
0.00708757
0.00868203
0.00845842
0.00739233
0.00708415
0.00733435
0.00752881
0.00802777
0.00840258
0.00919325
0.00882861
0.00849638
0.00872502
0.00860396
0.00862858
0.00885758
0.00829119
0.00853183
0.00912928
0.00910797
0.00896137
0.00925137
0.00791457
0.00792028
0.0091001
0.00895228
0.00892046
0.00921953
0.00962866
0.00825501
0.00886548
0.00833062
0.00886408
0.008447
0.0092576
0.00849543
0.0081387
0.00931044
0.00962282
0.00917036
0.00907566
0.00823463
0.00840549
0.00865019
0.00939968
0.00934664
0.00766887
0.00883604
0.00786454
0.00793914
0.00820718
0.0072065
0.00733926
0.00809408
0.0082013
0.0079296
0.0083238
0.0082594
0.00784041
0.011187
0.00456035
0.00457191
0.0104525
0.00762941
0.00795377
0.00846255
0.00776361
0.00747329
0.00709649
0.0079029
0.0079381
0.00787067
0.00846021
0.00872637
0.00809983
0.00850428
0.00851046
0.00811657
0.00861426
0.00828834
0.00820623
0.00849804
0.00858544
0.0084053
0.00946606
0.00946447
0.00942711
0.00898877
0.00847066
0.00881425
0.00905462
0.00805924
0.00809686
0.00781913
0.00865716
0.00883907
0.00869182
0.00918293
0.00858848
0.0089522
0.00879916
0.00861578
0.00828506
0.00932523
0.00958873
0.00840443
0.00807323
0.00842742
0.00834007
0.00855389
0.00906803
0.00887483
0.00862228
0.0085937
0.00742497
0.0082481
0.00762901
0.00817042
0.0072852
0.00773958
0.00793099
0.00812466
0.00753501
0.0107822
0.00456949
0.00454215
0.0105125
0.00693317
0.00767351
0.00895978
0.00902319
0.00764283
0.00695894
0.00799325
0.00780685
0.00884089
0.00941055
0.00862063
0.00928581
0.00829178
0.00844142
0.00843034
0.00812122
0.00845382
0.00859069
0.0085458
0.00855656
0.00842638
0.00894598
0.00956857
0.00910151
0.00903746
0.00804642
0.008785
0.0092104
0.00931492
0.00934986
0.00921629
0.00918313
0.00914297
0.00843513
0.00809983
0.00902107
0.00744947
0.00822705
0.00826954
0.00871845
0.00835148
0.00950651
0.00956215
0.00834351
0.00831615
0.00877607
0.0100456
0.00906559
0.00848466
0.0083415
0.00823178
0.00815385
0.00842072
0.00899004
0.00842577
0.00719141
0.0078184
0.00894561
0.00838007
0.00838897
0.0113665
0.00452012
0.00454331
0.00975235
0.00896312
0.00737274
0.00810698
0.00725125
0.00725481
0.00690513
0.00769792
0.00804799
0.0085771
0.00948439
0.00798879
0.00883048
0.00854953
0.00853936
0.00889102
0.00837284
0.00863302
0.00825332
0.00888044
0.00782746
0.00771149
0.00884526
0.00941913
0.00921573
0.00931611
0.00952278
0.00847895
0.00870379
0.00962135
0.00915772
0.00909207
0.0087212
0.00935365
0.00860393
0.00905959
0.00872983
0.00842478
0.00825038
0.00852813
0.00843044
0.00849916
0.00911332
0.0094502
0.00872645
0.00811122
0.00894157
0.00947639
0.00924424
0.0081495
0.00857452
0.00697755
0.00855037
0.00857198
0.0092381
0.00837517
0.00829815
0.00907195
0.00953024
0.00921887
0.0089129
0.0119667
0.00454974
0.00451217
0.0104561
0.00812408
0.00797802
0.00879305
0.00730344
0.00714235
0.00674261
0.00748275
0.0083957
0.00957001
0.00984951
0.00918824
0.00846186
0.00793056
0.00885608
0.00836405
0.00839849
0.0085369
0.00803673
0.00783652
0.00782943
0.00785177
0.00833498
0.00870326
0.00915644
0.00926616
0.00911374
0.00868744
0.00898473
0.00933545
0.00987346
0.00868917
0.00940074
0.00933439
0.0092219
0.00907987
0.00877811
0.0085245
0.00831249
0.00789846
0.00864473
0.00847318
0.00880206
0.00915187
0.00934052
0.00898356
0.0085058
0.00811694
0.00824502
0.0082779
0.00892052
0.00706382
0.00815659
0.00845935
0.00748926
0.00824975
0.00774451
0.00761888
0.0082585
0.00886191
0.0089424
0.0111771
0.00454471
0.0045199
0.0115108
0.00863049
0.00959072
0.00881719
0.00720766
0.00740921
0.00708809
0.00837542
0.00832827
0.00927063
0.00930437
0.00924468
0.00886813
0.00874516
0.00875914
0.00855926
0.00858073
0.00865406
0.00795081
0.00794824
0.00822304
0.00917601
0.00898922
0.00926264
0.00920564
0.0095145
0.00840555
0.00900313
0.00870311
0.00895715
0.00894103
0.00954356
0.00998777
0.00940497
0.0093618
0.0092668
0.00933818
0.00867041
0.00855686
0.00866537
0.00908687
0.00816447
0.0079079
0.00816893
0.00814826
0.00895962
0.00794519
0.0087792
0.00867757
0.00824323
0.00891324
0.00694305
0.00745094
0.00788745
0.00744838
0.00870945
0.00811606
0.00843404
0.00839976
0.00861983
0.00852635
0.0102907
0.00453368
0.00454084
0.0103843
0.00798265
0.00727148
0.00857836
0.00796795
0.00773478
0.00741699
0.00818071
0.00787444
0.00880078
0.0095617
0.00948929
0.00929402
0.00948725
0.00857461
0.00853874
0.00832163
0.00828107
0.00799005
0.00854995
0.0081949
0.00964681
0.00983005
0.00909118
0.00867157
0.00886808
0.0092197
0.00885027
0.00875949
0.00874283
0.00900457
0.00912294
0.00899248
0.00953811
0.00921758
0.00936204
0.00939419
0.00898655
0.008932
0.00876735
0.00950068
0.00923983
0.00888982
0.00874463
0.00820934
0.00850569
0.00827039
0.00930531
0.0089356
0.00868998
0.00807863
0.00715499
0.00732533
0.00749075
0.00710784
0.00868349
0.00733899
0.00734615
0.00784889
0.00823292
0.00897747
0.0116727
0.00453298
0.00452705
0.0109022
0.00790177
0.00706256
0.00867547
0.00858238
0.007427
0.00691322
0.0089213
0.00746928
0.00886685
0.00925508
0.00941688
0.00900375
0.00958102
0.00866003
0.00851714
0.00827615
0.00818356
0.00802901
0.00823226
0.00908039
0.00961846
0.0097387
0.0095684
0.00844032
0.00860131
0.00850066
0.00916081
0.00888981
0.00852441
0.00873727
0.00892744
0.00859323
0.00986095
0.00972016
0.0093856
0.00929605
0.00928269
0.0089816
0.00854397
0.00969756
0.00914383
0.0092358
0.00820259
0.00847744
0.00838419
0.00800065
0.00871031
0.00875892
0.00820178
0.00891239
0.00710855
0.00730036
0.00736026
0.00726058
0.00841003
0.00862794
0.00824566
0.00844671
0.00858171
0.00940185
0.0110449
0.00453508
0.00469978
0.0107864
0.00815344
0.00790602
0.00844444
0.00941788
0.00712751
0.00756786
0.00748069
0.0069887
0.0092886
0.00934556
0.00960765
0.0090482
0.00961211
0.00896126
0.00869742
0.00855646
0.00762587
0.00792752
0.00875449
0.00903275
0.00993648
0.00932995
0.00974328
0.00838358
0.0092624
0.00898466
0.00861114
0.00858904
0.0083642
0.00847926
0.00890515
0.0088758
0.00922457
0.0093229
0.00952664
0.00932283
0.00874424
0.00919636
0.00870056
0.0090442
0.00892844
0.00846904
0.00830449
0.00811503
0.00798238
0.0078655
0.00914617
0.00985564
0.00807406
0.00870732
0.00725261
0.00780634
0.0086944
0.00761411
0.00844284
0.00788596
0.00820409
0.00789882
0.00815734
0.0087018
0.0108095
0.00465071
0.00463716
0.0111919
0.00867576
0.00850532
0.00917782
0.00822736
0.00827746
0.00753239
0.0092853
0.00933125
0.00891626
0.00838761
0.00909133
0.00815685
0.00939135
0.00955262
0.00863116
0.00794206
0.00817706
0.00865134
0.00935319
0.0100609
0.00952598
0.00967825
0.00915516
0.00873183
0.00867625
0.00833038
0.00859753
0.00824431
0.00865481
0.00890207
0.00894955
0.00931067
0.00967815
0.00898303
0.00956284
0.00883717
0.00885592
0.00911579
0.00866518
0.00914718
0.00803326
0.00849803
0.00935105
0.00974349
0.00829107
0.00816866
0.0090001
0.00931844
0.00860739
0.00825304
0.0074867
0.00754247
0.0080309
0.00785887
0.00896145
0.00865078
0.00850144
0.00960846
0.00860227
0.00876394
0.0111575
0.00465558
0.0045776
0.0117236
0.0082277
0.0078847
0.00857047
0.00763544
0.00853485
0.00855833
0.00903251
0.00863673
0.00871968
0.0084809
0.00958861
0.00797502
0.00978282
0.00974791
0.00993211
0.0082171
0.00823029
0.00883276
0.00932834
0.00953503
0.00947727
0.00843236
0.00879661
0.00860127
0.00928565
0.00786103
0.00940942
0.0092171
0.00859262
0.00882658
0.00939395
0.00969546
0.00968352
0.00907699
0.00953579
0.00932439
0.0089875
0.00878342
0.00896525
0.00914257
0.0083868
0.0087456
0.00911175
0.00893932
0.00804588
0.00808213
0.00886697
0.00862341
0.00852564
0.00845993
0.00689461
0.00736474
0.00854062
0.00794534
0.00810188
0.00793312
0.00709891
0.0085157
0.00837132
0.0089793
0.0103707
0.00453487
0.00460981
0.0115625
0.00827522
0.00849077
0.0081599
0.0093413
0.00806595
0.0078749
0.00788199
0.00835424
0.00903046
0.00871692
0.00968536
0.00777385
0.00861806
0.00954849
0.0092314
0.00947176
0.00913992
0.00880439
0.00882335
0.00921655
0.00882425
0.00899922
0.00865358
0.00870525
0.00874885
0.00823982
0.0091332
0.0087574
0.0083469
0.00901417
0.00901057
0.0100768
0.00981055
0.00905252
0.00943165
0.00931359
0.00867729
0.00914292
0.00932408
0.00933506
0.00869402
0.00899113
0.00898832
0.00823799
0.00834402
0.00900516
0.00855326
0.00803506
0.00799628
0.00887519
0.00736845
0.00708105
0.0079718
0.00816746
0.00863285
0.00899517
0.00825058
0.00889212
0.00841369
0.00877695
0.0108762
0.00464416
0.00457101
0.0115804
0.00871523
0.00893126
0.00907238
0.00794896
0.00851633
0.00810839
0.00807267
0.00835052
0.0085784
0.00901026
0.00930581
0.00919811
0.00842282
0.00918906
0.00972495
0.00974706
0.00903671
0.00963787
0.00938431
0.00851167
0.00860191
0.00909931
0.00915247
0.00888201
0.00936558
0.00847326
0.00878592
0.00869809
0.00887687
0.0088903
0.00940194
0.00886493
0.00899105
0.00897626
0.00947807
0.00895037
0.00825239
0.00931073
0.00896852
0.00799354
0.00864219
0.00901845
0.00922908
0.00820786
0.0097032
0.00946725
0.00887072
0.00751836
0.00855286
0.00830085
0.00724912
0.00858034
0.00830537
0.00852379
0.00865614
0.00946837
0.00772393
0.00826298
0.00813749
0.0087926
0.0104969
0.00462966
0.00457832
0.0107763
0.00904877
0.0094724
0.00779147
0.00764941
0.00843164
0.00674691
0.00745865
0.00764014
0.00793295
0.00952047
0.00928008
0.00836555
0.00890021
0.0084243
0.00965105
0.00949538
0.00931437
0.00856441
0.00835981
0.00895013
0.00866237
0.00856846
0.00903933
0.00849086
0.00900182
0.00846972
0.00873695
0.00888813
0.00923526
0.00886727
0.00939582
0.0097105
0.00874227
0.00889275
0.00887528
0.00917127
0.00924939
0.00945636
0.00917711
0.00851551
0.008804
0.00891382
0.00919168
0.00836021
0.00834903
0.00772191
0.00864805
0.00865323
0.00787051
0.00833546
0.00753252
0.00787883
0.00840831
0.00853583
0.00893466
0.00828469
0.00789358
0.00719985
0.00895888
0.00872015
0.0102321
0.00462161
0.00455393
0.00918752
0.00870255
0.00807234
0.00765094
0.0077454
0.00830435
0.00812142
0.00745963
0.00753265
0.00794264
0.00920076
0.0092413
0.00834208
0.00854829
0.00893876
0.00817507
0.00793651
0.00844242
0.00880088
0.00912199
0.00922656
0.00858959
0.00842439
0.00818719
0.00835773
0.0086717
0.00877227
0.00934127
0.00891679
0.00873229
0.00852177
0.00976516
0.00884822
0.00897045
0.00882189
0.00904854
0.00949461
0.00885959
0.00949562
0.00958578
0.00831131
0.00896415
0.00874304
0.00967889
0.00851368
0.00954761
0.00922159
0.00828345
0.00817031
0.00789399
0.00811109
0.00765611
0.00790373
0.00839468
0.00884206
0.00869873
0.00746887
0.00781624
0.00823643
0.00823901
0.00845654
0.0104073
0.00462211
0.00459203
0.0108631
0.00865789
0.00815177
0.00797385
0.00739251
0.00840173
0.00821327
0.00822973
0.00730028
0.00794451
0.00883125
0.00977386
0.00877745
0.00915676
0.00866886
0.00868681
0.00895576
0.0094488
0.00959726
0.00853819
0.00870769
0.00870758
0.00831264
0.00829224
0.0086353
0.00899959
0.00926473
0.00918429
0.00893085
0.00915271
0.00864836
0.00919475
0.00907884
0.00883082
0.00893989
0.00913762
0.00884562
0.00918105
0.00948116
0.00868228
0.00875123
0.00940954
0.00927298
0.00823127
0.00807686
0.00990656
0.0083279
0.00836723
0.00741958
0.00783905
0.00846678
0.00760278
0.00780543
0.00822301
0.00901702
0.00863281
0.00853534
0.00782029
0.00827499
0.0083055
0.00919735
0.0115297
0.00464372
0.00457432
0.011035
0.0086881
0.00847964
0.00683698
0.00841359
0.00803501
0.00758578
0.008108
0.00747806
0.00851281
0.00828355
0.0091088
0.00837622
0.00945074
0.00839156
0.00822073
0.00820344
0.00947834
0.0096942
0.00877811
0.00887879
0.00879282
0.00851155
0.0084686
0.00929968
0.00923994
0.00881155
0.00900179
0.00848637
0.00969102
0.00934057
0.00907814
0.00874474
0.00840642
0.00923875
0.00920017
0.00857316
0.00953273
0.00964608
0.00837112
0.00890137
0.00911307
0.00910786
0.00861587
0.0079722
0.0087935
0.00822947
0.00823877
0.00782005
0.00826576
0.00834538
0.00718494
0.00718611
0.00679044
0.00800738
0.00862445
0.00789106
0.00759528
0.00777239
0.00865824
0.00943458
0.0102836
0.00465269
0.00456829
0.011466
0.00837377
0.00751575
0.0068421
0.00796332
0.00806405
0.00792306
0.00820134
0.00729132
0.00803066
0.00845837
0.00823123
0.00931949
0.00835396
0.00872243
0.00903216
0.00836064
0.00902154
0.00843953
0.0100452
0.00898515
0.00898785
0.00892273
0.00887162
0.00880136
0.00949796
0.00994124
0.00965242
0.00992824
0.00888026
0.00905675
0.00944108
0.00855379
0.00906373
0.00881383
0.00926617
0.00869794
0.00877482
0.00844454
0.00812956
0.00978474
0.00963189
0.00944389
0.00906593
0.00907093
0.00815169
0.00877751
0.00930635
0.00766549
0.00804141
0.00812852
0.00712276
0.00808299
0.00801158
0.00800338
0.00872561
0.00789971
0.00755408
0.00836238
0.00876114
0.00956625
0.0114012
0.00453188
0.00455111
0.0107562
0.00818261
0.00753321
0.00715657
0.0074301
0.00800768
0.0080303
0.00878482
0.0079295
0.00865
0.00850359
0.00854003
0.0089433
0.00874359
0.0087298
0.00835282
0.00821726
0.00938217
0.00963048
0.0091933
0.0102608
0.00911601
0.00954827
0.00921698
0.00882243
0.00897074
0.00900451
0.00888551
0.00883146
0.00904239
0.00878119
0.00848627
0.00933772
0.00912471
0.0088527
0.00870802
0.00889876
0.00892203
0.00821124
0.00890523
0.00913402
0.00947067
0.0087091
0.00824841
0.00991389
0.00867877
0.00834665
0.00918757
0.00777602
0.00869709
0.00840945
0.0083892
0.0083814
0.00788087
0.00891248
0.00891806
0.00931436
0.00763759
0.00815506
0.00872789
0.00892302
0.0110341
0.00451776
0.00470586
0.0109143
0.00819572
0.00710259
0.00685873
0.0073655
0.00827819
0.00749743
0.00824833
0.00813849
0.00904765
0.00823889
0.00859543
0.00880007
0.00867532
0.00916103
0.00842699
0.00859018
0.00913451
0.00931758
0.00962684
0.00840246
0.010101
0.0102941
0.00960637
0.0093346
0.00877007
0.00925601
0.0087716
0.00869135
0.00889815
0.00894379
0.00886424
0.0088473
0.00879338
0.00881095
0.00889602
0.00862317
0.00843946
0.00866942
0.0091115
0.00934665
0.00909781
0.00928817
0.00826461
0.0094661
0.00926944
0.00875636
0.00799208
0.00789991
0.00904784
0.00918407
0.0082505
0.00926452
0.00727856
0.00841014
0.00847047
0.00889414
0.00786521
0.00807256
0.0084921
0.00949531
0.011002
0.00452741
0.00465883
0.0112956
0.00845057
0.00731163
0.00821172
0.00717114
0.00770435
0.00721109
0.00784724
0.00837634
0.00953925
0.00844834
0.00826688
0.00910388
0.00903144
0.00848107
0.00862007
0.00845621
0.00918402
0.00913812
0.00934175
0.00951573
0.00957711
0.00965353
0.00959565
0.00965861
0.00900372
0.00944289
0.00889194
0.00912169
0.0088327
0.00951231
0.00929436
0.00940065
0.00862078
0.00902676
0.00883828
0.00848471
0.0084851
0.00997162
0.00924329
0.0092219
0.00890269
0.00899173
0.00812394
0.00869648
0.00812959
0.00851707
0.00757624
0.008647
0.00928313
0.00874869
0.0072701
0.00879524
0.00815627
0.00806327
0.00866269
0.00834851
0.00808123
0.00834547
0.00806882
0.00891254
0.0109334
0.00453299
0.00464403
0.0107541
0.00845786
0.00749556
0.00820511
0.00780679
0.00863967
0.00710827
0.00784066
0.00765732
0.00851672
0.00889118
0.00971573
0.0096325
0.00947259
0.00886932
0.00858323
0.00835214
0.00837812
0.00881798
0.00917754
0.00920336
0.00924811
0.00925588
0.00930015
0.00925547
0.00910375
0.00857179
0.00871231
0.00950835
0.00905136
0.00870383
0.00898369
0.00903557
0.00950392
0.00861153
0.00867186
0.00869137
0.00866642
0.00881004
0.00941935
0.00934378
0.00884044
0.00929765
0.00994928
0.00835796
0.00895608
0.00852255
0.00827955
0.00817094
0.00824154
0.00810762
0.00812427
0.00832199
0.00796223
0.00828335
0.00814972
0.00904605
0.00807886
0.00900412
0.00880223
0.00973274
0.0117005
0.00463561
0.00456002
0.0107327
0.00864445
0.00829251
0.00731061
0.00771356
0.008186
0.00723368
0.0083889
0.00785132
0.00805117
0.00883463
0.0088627
0.0089132
0.00900282
0.00824845
0.00909118
0.00860184
0.00857519
0.00948271
0.00903296
0.00872808
0.00925341
0.00922584
0.00921105
0.0090636
0.00950515
0.00857586
0.00911975
0.00875592
0.00851698
0.0088698
0.00936468
0.00866063
0.00855953
0.00843477
0.00845344
0.00932588
0.00883647
0.00882697
0.00924303
0.00860025
0.0082844
0.00777257
0.00971456
0.00905607
0.00879636
0.00923016
0.0074553
0.00852709
0.00852603
0.00795023
0.00736852
0.00766879
0.00811328
0.00869037
0.00760572
0.00922748
0.00797608
0.00842749
0.00895074
0.00915139
0.0113231
0.00463567
0.00456066
0.0106078
0.00862183
0.00892299
0.00858198
0.00756972
0.00834104
0.00724472
0.0076233
0.00914371
0.00780868
0.00879085
0.00929609
0.00939377
0.00911805
0.00917714
0.00926481
0.00822211
0.00847802
0.00886947
0.00855871
0.00936854
0.00869847
0.00882781
0.00882071
0.00920445
0.00896673
0.00869845
0.00852641
0.00854854
0.0094434
0.00965772
0.00935695
0.00862188
0.00815235
0.00913111
0.0093452
0.00873362
0.00904547
0.00918932
0.00838027
0.00826323
0.00816917
0.00911546
0.00821861
0.00872275
0.00923237
0.00843985
0.00773234
0.0100588
0.00888384
0.00700683
0.00722198
0.0075836
0.00796485
0.00856826
0.00752414
0.00900185
0.00785763
0.00845588
0.0079961
0.00891297
0.010359
0.00463655
0.00458097
0.0108752
0.00867306
0.00808042
0.00815855
0.00776727
0.00829739
0.00780371
0.00784819
0.00955649
0.00818061
0.00894492
0.00851059
0.00842966
0.00959083
0.00906651
0.00897146
0.00855451
0.00881608
0.00794378
0.00843908
0.00849067
0.00826249
0.00851992
0.00832032
0.00848314
0.00921145
0.00845578
0.00908099
0.00955034
0.00872269
0.00828541
0.00858363
0.00952702
0.00928692
0.00888052
0.00866103
0.00936151
0.00928469
0.00878398
0.00887776
0.00830418
0.0102019
0.00899132
0.00853663
0.00866303
0.00826926
0.00800279
0.00844268
0.00790187
0.00810394
0.00756516
0.00766726
0.00861557
0.0081336
0.00837481
0.00805522
0.00929624
0.0071599
0.0081337
0.00866727
0.00922237
0.011395
0.00465638
0.00458911
0.0108476
0.00874749
0.00764378
0.0084199
0.00854317
0.00840567
0.0071805
0.00700278
0.00876886
0.00839371
0.00904214
0.00917003
0.00853631
0.00849868
0.00931022
0.010023
0.00845672
0.00912007
0.00886531
0.00867829
0.00839658
0.00848653
0.00923925
0.00907564
0.00937024
0.00908248
0.0097587
0.00961322
0.00932062
0.00903384
0.00935281
0.00942883
0.00868386
0.00901
0.00915259
0.00900691
0.0095496
0.00886157
0.00881424
0.0086215
0.0100145
0.00945836
0.00943014
0.00811371
0.00906826
0.00902318
0.00721588
0.00808334
0.00901675
0.00762138
0.00757915
0.00818535
0.0073602
0.0083948
0.00914872
0.00930922
0.00898298
0.00758775
0.00755758
0.00830456
0.0091314
0.0115215
0.00463261
0.00456425
0.0112855
0.00956729
0.00792611
0.0082458
0.00820979
0.00797942
0.00708858
0.00735785
0.00954526
0.00803752
0.0079551
0.00801606
0.00887701
0.0082693
0.00950048
0.00966158
0.00916629
0.00859673
0.0091908