/*--------------------------------*- C++ -*----------------------------------*\
  =========                 |
  \\      /  F ield         | OpenFOAM: The Open Source CFD Toolbox
   \\    /   O peration     | Website:  https://openfoam.org
    \\  /    A nd           | Version:  11
     \\/     M anipulation  |
\*---------------------------------------------------------------------------*/
FoamFile
{
    format      ascii;
    class       volScalarField;
    location    "37";
    object      omega;
}
// * * * * * * * * * * * * * * * * * * * * * * * * * * * * * * * * * * * * * //

dimensions      [0 0 -1 0 0 0 0];

internalField   nonuniform List<scalar> 
262144
(
0.187732
0.196789
0.196298
0.194555
0.193539
0.196111
0.195058
0.194455
0.195138
0.195141
0.196172
0.193824
0.19562
0.195414
0.195333
0.193039
0.195772
0.195412
0.193168
0.194226
0.193433
0.195025
0.195034
0.195089
0.19509
0.19452
0.194509
0.194438
0.192913
0.193184
0.193003
0.193122
0.19311
0.192947
0.193061
0.193194
0.193399
0.193118
0.192908
0.192998
0.19292
0.193129
0.193173
0.195557
0.195794
0.195547
0.19539
0.195786
0.19564
0.195807
0.195727
0.195767
0.195206
0.193464
0.193053
0.193346
0.196859
0.195112
0.193468
0.193554
0.195552
0.195997
0.197927
0.186173
0.196658
0.122336
0.112051
0.111714
0.11248
0.112173
0.113424
0.115475
0.117705
0.114751
0.112859
0.109923
0.11387
0.113197
0.110551
0.111183
0.109594
0.11452
0.109456
0.108936
0.11039
0.110602
0.110994
0.115961
0.116586
0.114549
0.115567
0.117161
0.109364
0.115264
0.116146
0.108638
0.10885
0.107902
0.108872
0.109236
0.110226
0.110093
0.108625
0.108753
0.108147
0.108351
0.110317
0.116171
0.113996
0.110285
0.110345
0.112633
0.11339
0.11632
0.112219
0.120228
0.116443
0.116519
0.115961
0.111181
0.118327
0.109292
0.109876
0.114609
0.108608
0.112918
0.126463
0.197023
0.196198
0.110803
0.107244
0.112512
0.110801
0.109421
0.109855
0.110092
0.106808
0.103821
0.109515
0.108808
0.10764
0.111432
0.11062
0.111745
0.11129
0.0998887
0.107546
0.105997
0.107466
0.104644
0.110613
0.111504
0.11081
0.11009
0.110519
0.109535
0.107031
0.110114
0.110224
0.10965
0.107036
0.108063
0.105001
0.106459
0.106371
0.107715
0.108031
0.106321
0.102194
0.10929
0.107815
0.107183
0.10628
0.109849
0.106145
0.105044
0.109152
0.101789
0.108497
0.10717
0.113664
0.11064
0.108604
0.103522
0.11017
0.107525
0.101407
0.102898
0.107567
0.10626
0.114639
0.193601
0.195421
0.109706
0.102595
0.102748
0.111292
0.104045
0.108699
0.0998355
0.10497
0.108274
0.109539
0.106339
0.110588
0.101078
0.101257
0.107388
0.112496
0.0996948
0.108813
0.101689
0.10513
0.111925
0.098904
0.103206
0.100136
0.111752
0.103812
0.112052
0.0993155
0.100627
0.111645
0.112475
0.112295
0.109772
0.11226
0.11065
0.111226
0.109339
0.107471
0.10954
0.109821
0.109615
0.110215
0.0983925
0.0986905
0.0996443
0.106052
0.11021
0.109411
0.0991651
0.103258
0.104485
0.103886
0.104482
0.10745
0.106977
0.110827
0.111642
0.106111
0.105866
0.101034
0.102548
0.120286
0.193654
0.193525
0.109811
0.110641
0.111364
0.108414
0.101491
0.103821
0.0993732
0.109163
0.110584
0.102204
0.109262
0.108456
0.103372
0.10231
0.113295
0.113766
0.11362
0.108649
0.109119
0.108365
0.104313
0.102005
0.110926
0.106711
0.103199
0.116227
0.105901
0.11019
0.102459
0.1108
0.10871
0.11043
0.110064
0.111404
0.110551
0.110252
0.111411
0.111803
0.111889
0.112622
0.112178
0.110095
0.10085
0.0987484
0.104629
0.10958
0.104593
0.110006
0.109449
0.101909
0.110848
0.108949
0.109532
0.104662
0.104136
0.108157
0.107077
0.109074
0.106014
0.105589
0.106118
0.116327
0.195229
0.193207
0.119214
0.110648
0.108973
0.101271
0.105446
0.109591
0.106986
0.104384
0.102976
0.103465
0.10864
0.103857
0.0998833
0.102948
0.104563
0.0991867
0.11177
0.107289
0.105128
0.107011
0.108135
0.108871
0.108994
0.105805
0.106469
0.103365
0.106856
0.107007
0.104736
0.104222
0.106381
0.106426
0.104066
0.104653
0.103508
0.104106
0.103959
0.104663
0.103366
0.103185
0.104071
0.105967
0.100767
0.101094
0.101766
0.100765
0.104707
0.108155
0.100614
0.103707
0.108038
0.109506
0.105613
0.107822
0.100653
0.106708
0.105152
0.100757
0.107497
0.109432
0.105418
0.112065
0.193597
0.195925
0.109882
0.103993
0.108607
0.0983362
0.107865
0.111155
0.104038
0.10506
0.100828
0.10125
0.102016
0.100121
0.109884
0.110991
0.104022
0.1046
0.10445
0.104818
0.105316
0.10573
0.1059
0.104249
0.103348
0.103965
0.102527
0.105661
0.104867
0.106277
0.105714
0.105828
0.106094
0.107634
0.103128
0.107433
0.106012
0.10708
0.106488
0.106441
0.109465
0.108628
0.109121
0.102221
0.101684
0.107791
0.107651
0.101156
0.105614
0.103874
0.10313
0.104744
0.10501
0.105763
0.102012
0.105972
0.101837
0.106609
0.11065
0.105255
0.112509
0.107062
0.107784
0.114664
0.195551
0.195937
0.118628
0.111103
0.107752
0.100983
0.10728
0.106735
0.10157
0.101658
0.105575
0.102103
0.10412
0.0992543
0.107721
0.107804
0.10809
0.106042
0.105436
0.109119
0.107952
0.108435
0.104979
0.100721
0.102563
0.107246
0.102131
0.108255
0.103886
0.104549
0.103694
0.109428
0.102363
0.109717
0.10173
0.108252
0.103064
0.104086
0.104483
0.105197
0.106263
0.105902
0.109976
0.106807
0.103977
0.104387
0.103732
0.10281
0.107345
0.108144
0.10651
0.102678
0.104214
0.104908
0.0999582
0.105982
0.105546
0.105955
0.105549
0.109512
0.1106
0.110452
0.106698
0.115538
0.195274
0.195445
0.113328
0.109336
0.100034
0.0988228
0.106625
0.104608
0.103839
0.102215
0.101411
0.106387
0.108004
0.10666
0.111035
0.105916
0.106935
0.105559
0.108542
0.10431
0.103774
0.106295
0.106609
0.10579
0.108845
0.109809
0.108617
0.105874
0.108829
0.110414
0.1033
0.107026
0.110512
0.110123
0.107417
0.107159
0.109651
0.106506
0.106574
0.111292
0.10783
0.108584
0.110443
0.106268
0.107549
0.108041
0.103613
0.107453
0.106359
0.108822
0.104128
0.106903
0.100073
0.102809
0.1068
0.102242
0.101002
0.0992716
0.105244
0.102848
0.104986
0.108519
0.104855
0.117492
0.194103
0.195181
0.110078
0.11165
0.100084
0.0989369
0.0996699
0.102259
0.103743
0.100096
0.101322
0.105801
0.106789
0.107651
0.108762
0.106072
0.10735
0.107468
0.106473
0.10789
0.106854
0.106607
0.109544
0.11036
0.109337
0.10183
0.106953
0.101301
0.106927
0.109669
0.105241
0.106651
0.108016
0.103609
0.101848
0.111682
0.109458
0.105707
0.102943
0.103083
0.11016
0.105822
0.107245
0.107052
0.107107
0.104394
0.108298
0.105285
0.10559
0.106078
0.106527
0.111075
0.103087
0.107445
0.101136
0.108341
0.10916
0.110154
0.110876
0.10783
0.103591
0.107118
0.111076
0.115403
0.194268
0.193206
0.118226
0.110839
0.102857
0.100893
0.100305
0.0993034
0.101333
0.104834
0.106071
0.107
0.106958
0.107515
0.109368
0.105615
0.10962
0.107123
0.105379
0.105082
0.1053
0.107937
0.106908
0.109458
0.106467
0.105126
0.102474
0.106673
0.0994602
0.107463
0.100707
0.107109
0.108193
0.110491
0.101949
0.109884
0.108241
0.109632
0.109146
0.108744
0.106912
0.105763
0.10718
0.100464
0.109001
0.105625
0.106165
0.103418
0.106216
0.103104
0.105766
0.106451
0.106126
0.103032
0.106319
0.105677
0.108255
0.100241
0.102381
0.101237
0.104228
0.108915
0.102719
0.114299
0.194972
0.19306
0.111827
0.108265
0.0993518
0.104277
0.104011
0.103213
0.108226
0.102202
0.106775
0.107022
0.104595
0.106669
0.106554
0.105886
0.105171
0.107214
0.10684
0.0997644
0.109364
0.10866
0.108638
0.106928
0.100865
0.109568
0.109421
0.109009
0.109629
0.109699
0.105421
0.108013
0.107708
0.104837
0.107789
0.109555
0.10912
0.102507
0.107181
0.10658
0.106464
0.108197
0.104894
0.11006
0.109956
0.109514
0.108365
0.105361
0.10492
0.106505
0.111095
0.106019
0.105896
0.104818
0.107202
0.111279
0.104396
0.102798
0.100327
0.112301
0.108914
0.107535
0.107619
0.114614
0.194885
0.193307
0.116867
0.107933
0.110531
0.106334
0.104354
0.108109
0.109191
0.105426
0.105791
0.106068
0.10379
0.102307
0.105998
0.105549
0.105761
0.100693
0.102696
0.105503
0.110354
0.106442
0.105652
0.100394
0.100855
0.100697
0.100157
0.108059
0.10713
0.106984
0.105723
0.107058
0.10727
0.103399
0.108644
0.109036
0.109296
0.106142
0.105083
0.107224
0.109828
0.108736
0.103457
0.1061
0.105897
0.103977
0.109353
0.102795
0.108265
0.100784
0.108466
0.108564
0.100097
0.106296
0.10406
0.102059
0.104018
0.106843
0.102383
0.108745
0.107468
0.106685
0.109123
0.115171
0.194982
0.193108
0.11926
0.108284
0.104033
0.103655
0.101808
0.102935
0.108993
0.111431
0.110402
0.106959
0.105444
0.106169
0.107932
0.108918
0.108325
0.108407
0.110338
0.100648
0.101624
0.100086
0.108322
0.100289
0.10049
0.106766
0.105773
0.103617
0.100986
0.101248
0.0998818
0.101139
0.100538
0.100525
0.102573
0.100931
0.106151
0.106114
0.106743
0.0990038
0.109085
0.109105
0.109486
0.109495
0.10866
0.105831
0.106215
0.101063
0.106822
0.10187
0.10702
0.105535
0.108838
0.108148
0.10371
0.107866
0.102918
0.106388
0.108827
0.109505
0.102063
0.104354
0.106827
0.113343
0.19409
0.193353
0.111083
0.110418
0.100457
0.102187
0.104648
0.102533
0.104703
0.107871
0.106348
0.108833
0.100755
0.106829
0.108893
0.108393
0.109976
0.101316
0.104218
0.108362
0.104744
0.105058
0.109091
0.10763
0.107416
0.107269
0.107512
0.101493
0.108588
0.102473
0.103561
0.103921
0.108328
0.109078
0.108389
0.101073
0.101157
0.100023
0.100716
0.10048
0.109199
0.10352
0.10487
0.10933
0.107578
0.107999
0.107107
0.103894
0.110169
0.101438
0.10669
0.103111
0.103526
0.10591
0.104234
0.106279
0.101256
0.101089
0.101259
0.102099
0.107363
0.107514
0.106038
0.11576
0.194103
0.192655
0.112874
0.108803
0.108758
0.099764
0.101253
0.104463
0.106315
0.1018
0.109357
0.105818
0.109558
0.101495
0.107988
0.108461
0.102344
0.107307
0.105709
0.103732
0.107533
0.105365
0.108397
0.100635
0.108392
0.102994
0.103212
0.101184
0.105075
0.102226
0.105064
0.105372
0.107442
0.109362
0.108395
0.110423
0.107768
0.107586
0.102018
0.101114
0.101379
0.10022
0.101698
0.106195
0.10826
0.108496
0.107091
0.106747
0.103782
0.108177
0.108876
0.0997372
0.106626
0.107475
0.107225
0.106313
0.104655
0.101537
0.113638
0.106354
0.109731
0.108088
0.10729
0.114136
0.19513
0.192537
0.110351
0.110789
0.109206
0.107125
0.102238
0.108772
0.108025
0.107933
0.108624
0.105792
0.107672
0.108655
0.110199
0.111684
0.107483
0.106961
0.105683
0.104208
0.10776
0.106622
0.105156
0.106797
0.108084
0.107555
0.107989
0.106692
0.105165
0.108027
0.104897
0.1031
0.0996635
0.107369
0.103788
0.107413
0.10682
0.10384
0.103672
0.106959
0.105802
0.100348
0.0997428
0.100485
0.106206
0.106949
0.109004
0.106887
0.107425
0.10743
0.109673
0.110192
0.108781
0.104217
0.101452
0.108625
0.11039
0.101467
0.104402
0.103671
0.105061
0.103916
0.107692
0.11235
0.193083
0.193789
0.116979
0.110461
0.102966
0.109862
0.107741
0.106377
0.106893
0.105835
0.105944
0.106773
0.105216
0.107007
0.108677
0.111358
0.107346
0.105992
0.105195
0.108135
0.107824
0.106068
0.105931
0.105967
0.106024
0.105977
0.105923
0.105401
0.105847
0.105493
0.106692
0.109293
0.107057
0.109245
0.105433
0.105648
0.107329
0.106487
0.100889
0.101554
0.109257
0.105371
0.107233
0.100991
0.101431
0.108381
0.109927
0.106463
0.108264
0.106528
0.109132
0.106791
0.105441
0.105507
0.106787
0.103157
0.107541
0.101378
0.111184
0.10424
0.109
0.107148
0.108009
0.115951
0.19344
0.193179
0.112304
0.110381
0.111016
0.106481
0.10211
0.108291
0.109302
0.102942
0.109135
0.104177
0.102076
0.106806
0.102741
0.108344
0.107171
0.107347
0.105605
0.10619
0.106029
0.105893
0.105988
0.106035
0.107019
0.10535
0.106517
0.103936
0.105827
0.105565
0.105716
0.105442
0.105444
0.105852
0.106751
0.10726
0.105465
0.107232
0.102816
0.110172
0.10981
0.110765
0.107045
0.108142
0.100078
0.0996051
0.10925
0.111494
0.105984
0.104606
0.105723
0.108925
0.107507
0.106136
0.0998881
0.102131
0.102511
0.10195
0.110589
0.110977
0.105755
0.103859
0.106694
0.112993
0.192677
0.193175
0.119635
0.100279
0.108804
0.104137
0.108308
0.109304
0.108901
0.107838
0.10537
0.105849
0.102025
0.109208
0.107265
0.10662
0.10516
0.103686
0.107355
0.106015
0.105965
0.103083
0.10751
0.107857
0.106791
0.106367
0.105884
0.106204
0.105989
0.107295
0.106059
0.105381
0.10534
0.103516
0.105328
0.105739
0.107259
0.107302
0.104853
0.105656
0.105922
0.109897
0.111364
0.108601
0.101803
0.101698
0.108079
0.109333
0.101371
0.107057
0.106444
0.107569
0.107653
0.109481
0.0997286
0.102044
0.0985169
0.100845
0.103947
0.10042
0.104645
0.104647
0.104809
0.109063
0.192893
0.192526
0.116127
0.110879
0.109333
0.104555
0.10585
0.107349
0.109954
0.104818
0.106599
0.106442
0.10141
0.100889
0.108266
0.107173
0.103583
0.107407
0.106071
0.105968
0.107834
0.107214
0.107145
0.106747
0.106427
0.106389
0.106402
0.106311
0.104455
0.106931
0.106095
0.104547
0.103424
0.106468
0.105388
0.105237
0.105346
0.107308
0.107175
0.105846
0.104958
0.109921
0.11151
0.10757
0.105551
0.0997843
0.102245
0.107565
0.10926
0.107162
0.108977
0.108385
0.10527
0.10955
0.101522
0.104648
0.107781
0.101795
0.110227
0.109385
0.107298
0.105261
0.100266
0.113361
0.192843
0.192737
0.109385
0.107687
0.103274
0.102367
0.107702
0.104758
0.108968
0.108748
0.106528
0.101089
0.106303
0.100613
0.102726
0.106376
0.104485
0.106159
0.105911
0.103297
0.106913
0.107034
0.105848
0.107395
0.107086
0.106819
0.106362
0.103075
0.107376
0.103855
0.106611
0.106382
0.102211
0.102098
0.103618
0.105619
0.10516
0.105315
0.107179
0.107277
0.104883
0.104321
0.109008
0.107084
0.108024
0.107983
0.10901
0.102958
0.111441
0.107021
0.107918
0.107673
0.104893
0.109462
0.108251
0.105641
0.108816
0.102087
0.106418
0.103098
0.106533
0.100948
0.108656
0.116437
0.192957
0.193237
0.117028
0.111556
0.111822
0.101613
0.108715
0.102907
0.109262
0.104935
0.110684
0.106798
0.101816
0.102324
0.100988
0.105572
0.106406
0.105998
0.105967
0.107377
0.107073
0.106389
0.108467
0.0993466
0.104806
0.106555
0.106122
0.104493
0.103447
0.106188
0.106308
0.106439
0.106217
0.105952
0.106706
0.103586
0.105386
0.105174
0.106883
0.107146
0.105583
0.104151
0.104043
0.104005
0.106537
0.107181
0.10967
0.107313
0.111481
0.10575
0.106488
0.103042
0.106296
0.109471
0.107255
0.108458
0.107491
0.104981
0.110825
0.109001
0.108004
0.106128
0.10761
0.111887
0.192926
0.19285
0.116009
0.109222
0.111897
0.105418
0.101008
0.107618
0.109116
0.106901
0.110828
0.107084
0.107186
0.101539
0.102585
0.105242
0.105032
0.105935
0.105993
0.108349
0.106898
0.107434
0.105199
0.104938
0.105595
0.104884
0.107504
0.105819
0.107019
0.102592
0.103078
0.107967
0.106607
0.106521
0.104614
0.104055
0.103361
0.105033
0.105791
0.106882
0.104517
0.105416
0.101282
0.104527
0.107193
0.107146
0.10678
0.108489
0.111451
0.105928
0.108271
0.107257
0.104785
0.109609
0.110666
0.110494
0.109224
0.108568
0.103886
0.11088
0.103841
0.103917
0.105242
0.116893
0.192978
0.196022
0.116181
0.107791
0.111399
0.107449
0.101354
0.109655
0.109483
0.105006
0.113561
0.107173
0.105145
0.10087
0.107134
0.104975
0.104511
0.105913
0.10325
0.108651
0.107044
0.108086
0.105372
0.104629
0.106451
0.104871
0.107207
0.106016
0.107015
0.107734
0.106591
0.107701
0.107939
0.106573
0.105948
0.105864
0.105287
0.103271
0.105202
0.106733
0.106787
0.104182
0.105056
0.105297
0.106049
0.108885
0.107318
0.109945
0.111366
0.107448
0.0996208
0.108185
0.106322
0.109487
0.104467
0.106043
0.108717
0.104761
0.109636
0.110404
0.106073
0.10497
0.106893
0.115191
0.195233
0.194818
0.115305
0.105806
0.101991
0.103451
0.108083
0.102232
0.107727
0.109032
0.101358
0.106777
0.106136
0.101522
0.106781
0.104721
0.10452
0.10601
0.107874
0.106657
0.106452
0.106613
0.104478
0.105126
0.104796
0.101887
0.107937
0.107199
0.106485
0.107786
0.109361
0.107059
0.106603
0.105778
0.102549
0.103063
0.105665
0.103612
0.106071
0.106757
0.106795
0.103416
0.105204
0.108399
0.106279
0.106605
0.105154
0.108333
0.107945
0.105575
0.105881
0.108026
0.106692
0.109274
0.106762
0.105917
0.108815
0.102681
0.10332
0.108413
0.100182
0.104977
0.103925
0.115268
0.195378
0.193455
0.11019
0.107644
0.104723
0.0996886
0.105599
0.105474
0.107149
0.10932
0.108951
0.109907
0.107518
0.10091
0.106077
0.105243
0.104973
0.106017
0.107707
0.106865
0.106451
0.105328
0.104267
0.104967
0.107188
0.107352
0.107475
0.106363
0.107891
0.101038
0.102749
0.107038
0.107529
0.102676
0.101309
0.103014
0.106306
0.103652
0.106109
0.10675
0.105459
0.101666
0.105526
0.108324
0.106906
0.107301
0.106776
0.109996
0.10791
0.107715
0.105266
0.108757
0.106814
0.109152
0.105054
0.10592
0.10929
0.109144
0.101863
0.114787
0.106846
0.104422
0.107315
0.11748
0.193098
0.194189
0.109575
0.107804
0.101451
0.106981
0.101767
0.105177
0.105946
0.105586
0.110328
0.101594
0.109309
0.100598
0.106645
0.105306
0.104945
0.105961
0.106041
0.108126
0.106964
0.106376
0.100125
0.106256
0.105713
0.106505
0.105828
0.106009
0.109552
0.103931
0.106337
0.107599
0.106405
0.103368
0.101179
0.103606
0.105465
0.105127
0.105596
0.106457
0.104735
0.103921
0.106282
0.107837
0.104611
0.106725
0.108194
0.106695
0.103465
0.108434
0.110652
0.109607
0.106009
0.105951
0.106912
0.105696
0.106303
0.101962
0.100459
0.105352
0.102984
0.107491
0.10772
0.110808
0.195153
0.193645
0.109595
0.10798
0.0987944
0.1006
0.104172
0.101171
0.100958
0.103252
0.107164
0.108512
0.102154
0.100814
0.101291
0.105153
0.103387
0.10628
0.105571
0.10824
0.106323
0.106514
0.105696
0.105089
0.106149
0.106296
0.10498
0.103232
0.107372
0.106692
0.106641
0.106843
0.107307
0.10036
0.103025
0.106849
0.105562
0.104479
0.102641
0.106973
0.105925
0.105902
0.109257
0.106058
0.103563
0.107157
0.105226
0.106047
0.100138
0.105787
0.108667
0.105518
0.1057
0.10845
0.107306
0.103879
0.103643
0.101869
0.0990325
0.109413
0.109507
0.108008
0.105727
0.112092
0.194482
0.193501
0.115215
0.105612
0.100268
0.110231
0.104196
0.105902
0.113053
0.107277
0.108818
0.110179
0.101811
0.100889
0.102544
0.10753
0.104584
0.105956
0.103297
0.10382
0.10659
0.106591
0.104389
0.104883
0.105246
0.100208
0.110401
0.105123
0.107988
0.106585
0.106452
0.103777
0.107208
0.102403
0.103089
0.10652
0.106742
0.105752
0.102498
0.106286
0.106158
0.105319
0.107763
0.106314
0.107047
0.107129
0.106761
0.108885
0.108749
0.108899
0.109714
0.107891
0.107219
0.106557
0.107508
0.104469
0.103417
0.102553
0.10825
0.109693
0.109158
0.10043
0.105587
0.118015
0.194522
0.193309
0.126882
0.106597
0.108147
0.110549
0.102942
0.10838
0.104727
0.108624
0.109748
0.109389
0.102803
0.100068
0.108191
0.107186
0.105182
0.105746
0.106406
0.106703
0.101437
0.102231
0.105181
0.107305
0.108526
0.107849
0.109188
0.106551
0.10507
0.10282
0.106472
0.107545
0.103755
0.103122
0.1064
0.105354
0.104408
0.101765
0.10363
0.106673
0.103559
0.105285
0.108884
0.106018
0.110453
0.106069
0.106751
0.10849
0.106905
0.108559
0.10668
0.106862
0.107371
0.105123
0.107021
0.101771
0.103708
0.0997694
0.112437
0.109357
0.108252
0.107313
0.107545
0.115071
0.194503
0.193734
0.11213
0.108181
0.1011
0.101254
0.106146
0.103954
0.107777
0.109202
0.109792
0.108389
0.103326
0.100906
0.106924
0.106466
0.107447
0.108354
0.106938
0.106349
0.101083
0.106155
0.106719
0.107309
0.108083
0.108039
0.106761
0.106386
0.102537
0.10379
0.106651
0.103689
0.103154
0.106802
0.105376
0.107057
0.107092
0.103773
0.106566
0.107252
0.103846
0.107719
0.106607
0.105297
0.107868
0.106211
0.105778
0.101468
0.110534
0.10594
0.10898
0.107704
0.104788
0.107525
0.107992
0.105594
0.10545
0.103297
0.102006
0.110478
0.10788
0.105903
0.106975
0.11441
0.195075
0.193372
0.111537
0.106371
0.101665
0.111246
0.103867
0.106048
0.109775
0.108125
0.108327
0.108645
0.10654
0.101969
0.106841
0.102921
0.108332
0.106381
0.106402
0.102081
0.103464
0.107515
0.106637
0.106568
0.107984
0.107901
0.103306
0.103542
0.103267
0.10448
0.107609
0.103329
0.106805
0.105188
0.106548
0.10709
0.103444
0.10313
0.106612
0.100373
0.103667
0.10886
0.105295
0.105425
0.107949
0.105015
0.106762
0.105775
0.110792
0.107068
0.11107
0.103594
0.108112
0.109524
0.108226
0.113055
0.105504
0.101913
0.105076
0.110104
0.107991
0.106223
0.10681
0.120804
0.195301
0.193285
0.111058
0.108091
0.111284
0.112749
0.100283
0.105156
0.104252
0.109953
0.108805
0.107633
0.109385
0.10701
0.101272
0.110504
0.105715
0.102435
0.108739
0.10543
0.106304
0.103881
0.106151
0.106545
0.106243
0.106238
0.107617
0.105421
0.102989
0.103396
0.103442
0.106404
0.105247
0.101663
0.106992
0.103687
0.106271
0.100311
0.10799
0.106101
0.107889
0.108351
0.103136
0.101791
0.105778
0.103816
0.108503
0.107847
0.10869
0.101984
0.111259
0.106698
0.104753
0.107542
0.101464
0.101686
0.10514
0.100746
0.10738
0.110876
0.108955
0.104658
0.101671
0.113824
0.192957
0.193364
0.115744
0.108513
0.110389
0.111193
0.106309
0.104534
0.103709
0.103679
0.107211
0.106928
0.109803
0.10685
0.101182
0.106933
0.105679
0.106972
0.107057
0.105621
0.103552
0.106412
0.100321
0.108932
0.102775
0.10593
0.106942
0.10333
0.106562
0.106492
0.106469
0.105326
0.107055
0.107005
0.103569
0.104134
0.107022
0.107465
0.105166
0.104963
0.108439
0.106226
0.106479
0.105051
0.104754
0.106408
0.101676
0.104297
0.109915
0.10655
0.111245
0.107722
0.105702
0.108803
0.101834
0.107345
0.103733
0.103964
0.0995721
0.110961
0.108526
0.105428
0.106695
0.113843
0.192609
0.196517
0.116624
0.108464
0.109868
0.11171
0.106077
0.101945
0.106591
0.103677
0.102994
0.100352
0.107648
0.107252
0.101444
0.10245
0.106489
0.108401
0.109744
0.103458
0.105491
0.103564
0.106602
0.103735
0.101168
0.105155
0.104344
0.106369
0.103598
0.105533
0.105556
0.104023
0.107079
0.103622
0.106315
0.107024
0.106555
0.105935
0.10587
0.10732
0.104879
0.105599
0.107155
0.107767
0.104515
0.105553
0.105847
0.107298
0.107551
0.107644
0.106763
0.1063
0.100286
0.107823
0.101583
0.108751
0.103787
0.10364
0.0981413
0.110655
0.108602
0.109426
0.102306
0.115799
0.192878
0.195411
0.115979
0.111655
0.111774
0.103627
0.107529
0.108583
0.109611
0.107162
0.107383
0.0999595
0.109683
0.106936
0.100804
0.102956
0.109195
0.106913
0.107035
0.102765
0.107314
0.105705
0.105225
0.105395
0.103284
0.103529
0.103428
0.105402
0.105674
0.104105
0.105731
0.104359
0.103768
0.102789
0.10046
0.108046
0.105892
0.106112
0.109535
0.107473
0.101789
0.103935
0.107671
0.106511
0.105836
0.105001
0.104904
0.110199
0.109089
0.107642
0.106962
0.103356
0.107303
0.112726
0.101387
0.103814
0.104991
0.102916
0.108995
0.110926
0.106363
0.108798
0.106461
0.117333
0.192928
0.195095
0.116937
0.111862
0.109011
0.103441
0.103979
0.103158
0.111159
0.10752
0.105947
0.110268
0.107974
0.101565
0.100805
0.100528
0.107072
0.105922
0.10513
0.105621
0.105591
0.107127
0.105319
0.105202
0.105093
0.105049
0.105586
0.105725
0.107096
0.102711
0.102509
0.103856
0.106651
0.106603
0.104888
0.105594
0.106298
0.109554
0.105755
0.106886
0.10661
0.105996
0.106551
0.104513
0.106031
0.0989917
0.107739
0.108411
0.106009
0.102018
0.10709
0.108598
0.109587
0.103129
0.100556
0.103038
0.105061
0.110066
0.103509
0.109844
0.107434
0.104403
0.104989
0.11406
0.195002
0.193151
0.117029
0.111496
0.109722
0.105318
0.104472
0.106022
0.106554
0.10691
0.102332
0.103145
0.10825
0.108317
0.106526
0.101908
0.105454
0.10426
0.10499
0.105716
0.106433
0.107209
0.106523
0.106763
0.106506
0.106874
0.107213
0.102525
0.10715
0.107071
0.106395
0.106726
0.106703
0.101937
0.105969
0.105064
0.108363
0.107059
0.100245
0.106501
0.109482
0.106578
0.105261
0.105908
0.108516
0.104887
0.108479
0.107127
0.105871
0.10939
0.108051
0.106407
0.10192
0.108924
0.108365
0.104352
0.104911
0.10998
0.0996905
0.107057
0.107638
0.105176
0.105509
0.115431
0.194608
0.193157
0.117182
0.11081
0.102117
0.106574
0.103211
0.105476
0.1073
0.107903
0.101881
0.110542
0.107031
0.105925
0.100986
0.100376
0.103162
0.105692
0.106772
0.106558
0.102383
0.106566
0.106039
0.107295
0.106762
0.106484
0.106524
0.107427
0.106042
0.106229
0.105355
0.10381
0.103753
0.105023
0.106841
0.110254
0.105374
0.100012
0.105254
0.105034
0.107312
0.105254
0.104948
0.105533
0.107205
0.106464
0.109188
0.106509
0.107133
0.110554
0.10363
0.1042
0.109262
0.11068
0.105483
0.104625
0.105334
0.110265
0.102415
0.110381
0.106115
0.105901
0.110314
0.117362
0.194627
0.19375
0.115964
0.110654
0.108156
0.106728
0.104771
0.105918
0.102261
0.106129
0.10663
0.109591
0.107101
0.105228
0.107476
0.101636
0.102403
0.103482
0.102252
0.11036
0.109638
0.104463
0.104207
0.105943
0.10546
0.106027
0.105871
0.105489
0.107212
0.10379
0.104602
0.107718
0.108426
0.107667
0.104603
0.101331
0.106215
0.105725
0.10732
0.106772
0.103622
0.105008
0.105319
0.10128
0.106121
0.107911
0.107749
0.107898
0.111351
0.106352
0.104829
0.107015
0.106137
0.105682
0.100871
0.100352
0.104755
0.110737
0.100412
0.11058
0.106769
0.10517
0.108143
0.114769
0.195349
0.193689
0.118814
0.110077
0.105299
0.106318
0.104747
0.106348
0.107657
0.109386
0.107293
0.109207
0.10006
0.103148
0.108968
0.106185
0.0991066
0.100403
0.107251
0.103866
0.11021
0.106295
0.105346
0.105527
0.105115
0.105081
0.10398
0.106089
0.100567
0.0994222
0.108723
0.103551
0.105763
0.10033
0.106289
0.104681
0.107696
0.106577
0.104771
0.104581
0.105323
0.105455
0.102852
0.10661
0.10553
0.108861
0.105709
0.104513
0.110786
0.106221
0.107011
0.109567
0.10674
0.109485
0.108143
0.100151
0.102009
0.104668
0.0989017
0.109569
0.111089
0.106128
0.107044
0.115625
0.194595
0.193324
0.115023
0.10191
0.104705
0.108704
0.103144
0.107748
0.107755
0.105027
0.103936
0.113174
0.110539
0.109252
0.106085
0.107872
0.100231
0.101602
0.101066
0.10638
0.102156
0.106867
0.10955
0.108249
0.104866
0.104474
0.104751
0.106294
0.103192
0.102905
0.104908
0.106247
0.103471
0.103651
0.108135
0.107891
0.1052
0.104917
0.105023
0.106478
0.105025
0.103283
0.104941
0.109775
0.110045
0.105648
0.103604
0.108092
0.110422
0.102701
0.109333
0.108432
0.109411
0.107093
0.105791
0.101159
0.103867
0.10059
0.0989381
0.104768
0.100547
0.10747
0.106531
0.114253
0.195168
0.194824
0.116652
0.102411
0.107444
0.11122
0.109151
0.107814
0.106627
0.103904
0.104058
0.106856
0.105344
0.109695
0.108479
0.110299
0.102469
0.0994841
0.100732
0.101102
0.107556
0.104574
0.107141
0.106338
0.103588
0.105894
0.106996
0.105648
0.105154
0.106547
0.104593
0.106256
0.107921
0.105797
0.104993
0.104045
0.105355
0.104553
0.106499
0.103687
0.100925
0.104597
0.107918
0.109278
0.106149
0.106574
0.109638
0.111408
0.102047
0.104735
0.107052
0.10651
0.109328
0.105494
0.105404
0.104091
0.102064
0.113226
0.0998737
0.108756
0.102335
0.107273
0.108722
0.111973
0.195071
0.19507
0.115162
0.108586
0.100599
0.106101
0.104383
0.109542
0.099755
0.105207
0.107449
0.106183
0.109869
0.100152
0.108763
0.106272
0.108279
0.102266
0.103642
0.10051
0.101797
0.1093
0.107885
0.107447
0.10763
0.107222
0.10725
0.107827
0.102881
0.106753
0.105519
0.104384
0.105482
0.106471
0.10637
0.105924
0.10746
0.101651
0.104828
0.107319
0.110488
0.106221
0.108613
0.105718
0.109789
0.103082
0.104413
0.110357
0.106781
0.108339
0.106292
0.110272
0.109261
0.106191
0.106894
0.10548
0.101925
0.106628
0.0995948
0.108005
0.108755
0.107774
0.105664
0.108777
0.192486
0.194737
0.112689
0.110869
0.0987343
0.0979434
0.103388
0.109079
0.108984
0.104779
0.103557
0.108175
0.105467
0.102544
0.106648
0.109141
0.106868
0.110442
0.107691
0.108833
0.108838
0.101083
0.107358
0.10725
0.107552
0.106792
0.105183
0.106664
0.108444
0.105483
0.10501
0.105519
0.107615
0.101616
0.105983
0.108043
0.100837
0.107029
0.108248
0.107374
0.108028
0.107376
0.107454
0.105879
0.106028
0.106139
0.109414
0.102773
0.10773
0.107802
0.109147
0.109824
0.105644
0.103672
0.106259
0.104061
0.101904
0.106885
0.103641
0.106395
0.102064
0.101618
0.107957
0.114607
0.193085
0.195388
0.113316
0.102758
0.103091
0.101912
0.104038
0.105644
0.103218
0.106158
0.103454
0.105384
0.104996
0.103985
0.107538
0.110099
0.108538
0.10429
0.0997281
0.111301
0.106526
0.107585
0.108007
0.110632
0.108748
0.105669
0.107874
0.101683
0.100475
0.107127
0.105423
0.107828
0.107754
0.109123
0.108033
0.103544
0.106958
0.109746
0.10814
0.104932
0.106806
0.100975
0.106952
0.110357
0.109496
0.107773
0.106564
0.107924
0.10723
0.107032
0.110098
0.108864
0.10724
0.105048
0.108225
0.102341
0.103138
0.106861
0.10219
0.109017
0.109969
0.108609
0.106783
0.109929
0.19245
0.19468
0.117916
0.0998262
0.107232
0.101365
0.103123
0.102179
0.102967
0.106466
0.108866
0.106337
0.100595
0.10713
0.109204
0.110508
0.107117
0.10852
0.104224
0.106787
0.108354
0.104541
0.109765
0.109772
0.109583
0.109735
0.106728
0.106729
0.105417
0.106077
0.110472
0.108251
0.10824
0.10892
0.106232
0.101588
0.107277
0.10836
0.109799
0.107247
0.107625
0.109703
0.109729
0.108794
0.105449
0.102888
0.107417
0.103246
0.107244
0.110094
0.110232
0.10557
0.104893
0.107849
0.101392
0.103813
0.104811
0.101571
0.105998
0.110587
0.110749
0.106811
0.108244
0.117622
0.193043
0.192938
0.114406
0.101594
0.109614
0.102197
0.109239
0.104051
0.10792
0.109925
0.104144
0.110884
0.106972
0.106246
0.102935
0.10703
0.102062
0.107043
0.106342
0.103091
0.106638
0.101833
0.107331
0.111079
0.107305
0.107807
0.106488
0.105479
0.106348
0.106753
0.108492
0.106402
0.106679
0.108151
0.102923
0.106713
0.105722
0.110683
0.111316
0.104135
0.107632
0.102954
0.107757
0.106152
0.106879
0.109357
0.105129
0.106566
0.108731
0.110107
0.107912
0.105011
0.10625
0.107604
0.104705
0.108838
0.102036
0.102121
0.107666
0.107773
0.109177
0.107621
0.107609
0.114328
0.195278
0.19291
0.116475
0.107782
0.0992779
0.108307
0.102219
0.100659
0.106184
0.109471
0.107103
0.106725
0.107028
0.105255
0.10046
0.102068
0.108806
0.107493
0.108615
0.10373
0.106691
0.108118
0.109003
0.108351
0.103583
0.109718
0.109789
0.104632
0.106204
0.107944
0.109852
0.111255
0.107916
0.107975
0.101399
0.109279
0.107662
0.10978
0.103278
0.105797
0.104561
0.106195
0.107386
0.104488
0.104236
0.107261
0.108043
0.107156
0.108438
0.107856
0.107292
0.101795
0.102754
0.105913
0.103967
0.104987
0.0996034
0.104449
0.109251
0.106705
0.110803
0.106352
0.110948
0.109751
0.19331
0.192884
0.116735
0.106317
0.102366
0.106857
0.107533
0.104163
0.105348
0.103372
0.100916
0.106135
0.109826
0.107019
0.103423
0.106455
0.10134
0.106846
0.105479
0.100436
0.108642
0.107438
0.108995
0.10535
0.107618
0.107833
0.107895
0.107623
0.100982
0.102096
0.105894
0.107063
0.10397
0.104984
0.106888
0.106619
0.106216
0.108749
0.106632
0.107924
0.108265
0.108064
0.109188
0.109075
0.103251
0.101356
0.106084
0.106809
0.105342
0.105048
0.10377
0.104909
0.108273
0.105404
0.107087
0.11203
0.112791
0.107122
0.101474
0.109213
0.113576
0.106717
0.108591
0.114523
0.19269
0.195562
0.116038
0.108241
0.109869
0.108143
0.107853
0.103691
0.10409
0.107879
0.103917
0.103115
0.105311
0.106482
0.10877
0.104081
0.111331
0.107699
0.109068
0.105589
0.104141
0.108079
0.109688
0.102298
0.10802