/*--------------------------------*- C++ -*----------------------------------*\
  =========                 |
  \\      /  F ield         | OpenFOAM: The Open Source CFD Toolbox
   \\    /   O peration     | Website:  https://openfoam.org
    \\  /    A nd           | Version:  11
     \\/     M anipulation  |
\*---------------------------------------------------------------------------*/
FoamFile
{
    format      ascii;
    class       volScalarField;
    location    "37";
    object      p;
}
// * * * * * * * * * * * * * * * * * * * * * * * * * * * * * * * * * * * * * //

dimensions      [0 2 -2 0 0 0 0];

internalField   nonuniform List<scalar> 
262144
(
-6.79795e-05
-1.74152e-05
-9.32109e-06
-2.50002e-05
-1.42965e-05
-2.85943e-05
-1.37886e-05
-2.81328e-05
-1.52747e-05
-2.71793e-05
-1.77808e-05
-2.54088e-05
-1.98368e-05
-2.45227e-05
-2.14868e-05
-2.2979e-05
-2.21087e-05
-2.32277e-05
-2.25393e-05
-2.32046e-05
-2.31756e-05
-2.38638e-05
-2.38597e-05
-2.4765e-05
-2.48116e-05
-2.46823e-05
-2.49722e-05
-2.44759e-05
-2.41354e-05
-2.43707e-05
-2.44896e-05
-2.39771e-05
-2.3799e-05
-2.37999e-05
-2.35234e-05
-2.362e-05
-2.31304e-05
-2.30049e-05
-2.30288e-05
-2.28568e-05
-2.28386e-05
-2.29419e-05
-2.29273e-05
-2.36797e-05
-2.33847e-05
-2.29531e-05
-2.29502e-05
-2.29002e-05
-2.35629e-05
-2.19909e-05
-2.46482e-05
-1.97276e-05
-2.59194e-05
-1.74714e-05
-2.69445e-05
-1.5502e-05
-2.82949e-05
-1.36239e-05
-2.70441e-05
-1.40235e-05
-2.45379e-05
-9.6707e-06
-1.64393e-05
-6.66483e-05
-1.73878e-05
4.76302e-05
4.97662e-05
3.59844e-05
4.54225e-05
3.29295e-05
4.60886e-05
3.23182e-05
4.50889e-05
3.33147e-05
4.27528e-05
3.48092e-05
4.09458e-05
3.57074e-05
3.84187e-05
3.62986e-05
3.64291e-05
3.599e-05
3.66091e-05
3.60276e-05
3.64315e-05
3.54024e-05
3.556e-05
3.55609e-05
3.57029e-05
3.51361e-05
3.50265e-05
3.53511e-05
3.46088e-05
3.53275e-05
3.50955e-05
3.45716e-05
3.43541e-05
3.43038e-05
3.42446e-05
3.45128e-05
3.43664e-05
3.45061e-05
3.44056e-05
3.47814e-05
3.48682e-05
3.51136e-05
3.5432e-05
3.57149e-05
3.58856e-05
3.56334e-05
3.60115e-05
3.69146e-05
3.6558e-05
3.87019e-05
3.57208e-05
4.07339e-05
3.48518e-05
4.27692e-05
3.34925e-05
4.49401e-05
3.23697e-05
4.5435e-05
3.13986e-05
4.50911e-05
3.54419e-05
5.12034e-05
4.87508e-05
-1.62054e-05
-9.71288e-06
4.98445e-05
5.63928e-05
4.09173e-05
5.08268e-05
3.73828e-05
5.12792e-05
3.71973e-05
4.99601e-05
3.81384e-05
4.76874e-05
3.9594e-05
4.55156e-05
4.06915e-05
4.32756e-05
4.16583e-05
4.21334e-05
4.18946e-05
4.17954e-05
4.14966e-05
4.12393e-05
4.08048e-05
4.05923e-05
4.03916e-05
4.01576e-05
4.00457e-05
3.99436e-05
4.00297e-05
3.98873e-05
4.0142e-05
3.99028e-05
4.00059e-05
4.00023e-05
4.01352e-05
4.01185e-05
4.02066e-05
4.03841e-05
4.05006e-05
4.06513e-05
4.07371e-05
4.08982e-05
4.10629e-05
4.11789e-05
4.13415e-05
4.14586e-05
4.16188e-05
4.17126e-05
4.20412e-05
4.1593e-05
4.33452e-05
4.06686e-05
4.56363e-05
3.948e-05
4.74504e-05
3.81108e-05
4.9815e-05
3.70524e-05
5.12219e-05
3.74617e-05
5.10951e-05
4.12211e-05
5.71159e-05
5.09823e-05
-9.65858e-06
-2.46601e-05
3.60265e-05
4.10009e-05
2.72668e-05
3.64273e-05
2.34705e-05
3.71724e-05
2.30753e-05
3.59096e-05
2.4272e-05
3.38819e-05
2.56193e-05
3.17657e-05
2.67714e-05
2.96618e-05
2.77117e-05
2.82099e-05
2.78046e-05
2.76311e-05
2.73755e-05
2.71679e-05
2.70789e-05
2.67755e-05
2.67671e-05
2.64443e-05
2.63573e-05
2.62872e-05
2.60527e-05
2.61103e-05
2.59541e-05
2.60098e-05
2.59335e-05
2.59439e-05
2.59298e-05
2.59689e-05
2.60939e-05
2.60551e-05
2.62376e-05
2.63131e-05
2.64805e-05
2.66806e-05
2.68841e-05
2.71302e-05
2.71909e-05
2.74509e-05
2.75794e-05
2.78585e-05
2.83712e-05
2.79197e-05
2.96822e-05
2.68282e-05
3.16195e-05
2.55286e-05
3.36982e-05
2.41429e-05
3.58403e-05
2.32105e-05
3.70913e-05
2.35805e-05
3.64178e-05
2.72053e-05
4.13214e-05
3.68016e-05
-2.47065e-05
-1.43269e-05
4.56616e-05
5.06416e-05
3.63455e-05
4.58976e-05
3.28377e-05
4.64794e-05
3.24509e-05
4.52199e-05
3.33985e-05
4.30003e-05
3.47805e-05
4.10228e-05
3.59869e-05
3.87577e-05
3.70046e-05
3.73989e-05
3.68199e-05
3.67706e-05
3.64596e-05
3.63315e-05
3.61002e-05
3.58858e-05
3.57221e-05
3.56109e-05
3.54947e-05
3.54064e-05
3.53757e-05
3.51672e-05
3.51895e-05
3.51152e-05
3.50951e-05
3.50649e-05
3.51285e-05
3.51215e-05
3.5204e-05
3.52831e-05
3.5342e-05
3.551e-05
3.56313e-05
3.57395e-05
3.59029e-05
3.60709e-05
3.62269e-05
3.64526e-05
3.66861e-05
3.68936e-05
3.73146e-05
3.69776e-05
3.8635e-05
3.5972e-05
4.08433e-05
3.4786e-05
4.29016e-05
3.34632e-05
4.51055e-05
3.2374e-05
4.63827e-05
3.27146e-05
4.56357e-05
3.62389e-05
5.11079e-05
4.54556e-05
-1.45544e-05
-2.7908e-05
3.24526e-05
3.74983e-05
2.33528e-05
3.29094e-05
1.97932e-05
3.36142e-05
1.95057e-05
3.23823e-05
2.04775e-05
3.01734e-05
2.19126e-05
2.80799e-05
2.31196e-05
2.60037e-05
2.41074e-05
2.4571e-05
2.41845e-05
2.39976e-05
2.38363e-05
2.36125e-05
2.34568e-05
2.32982e-05
2.30802e-05
2.29194e-05
2.2742e-05
2.25949e-05
2.24951e-05
2.24628e-05
2.23951e-05
2.2302e-05
2.2317e-05
2.2262e-05
2.2309e-05
2.23302e-05
2.24192e-05
2.2491e-05
2.26175e-05
2.27249e-05
2.2878e-05
2.30409e-05
2.32324e-05
2.3401e-05
2.36399e-05
2.38338e-05
2.40689e-05
2.41501e-05
2.46148e-05
2.4173e-05
2.59526e-05
2.32162e-05
2.81031e-05
2.19623e-05
3.00455e-05
2.05511e-05
3.22853e-05
1.94581e-05
3.35947e-05
1.98931e-05
3.28183e-05
2.34315e-05
3.76574e-05
3.21567e-05
-2.74044e-05
-1.37538e-05
4.5758e-05
5.11904e-05
3.7169e-05
4.64595e-05
3.3645e-05
4.71529e-05
3.3197e-05
4.60246e-05
3.41645e-05
4.38189e-05
3.56036e-05
4.17337e-05
3.67911e-05
3.95388e-05
3.77722e-05
3.81921e-05
3.77831e-05
3.76232e-05
3.73324e-05
3.71319e-05
3.69326e-05
3.67425e-05
3.66146e-05
3.64203e-05
3.63351e-05
3.61787e-05
3.60984e-05
3.60085e-05
3.59606e-05
3.59317e-05
3.59236e-05
3.59277e-05
3.59533e-05
3.59979e-05
3.60555e-05
3.61331e-05
3.62433e-05
3.63382e-05
3.64713e-05
3.65989e-05
3.67567e-05
3.69373e-05
3.71115e-05
3.73124e-05
3.75229e-05
3.77285e-05
3.81521e-05
3.77738e-05
3.95278e-05
3.67973e-05
4.17581e-05
3.55469e-05
4.37753e-05
3.41901e-05
4.58864e-05
3.31171e-05
4.71405e-05
3.35365e-05
4.64012e-05
3.69729e-05
5.14202e-05
4.6437e-05
-1.4451e-05
-2.82189e-05
3.21648e-05
3.72852e-05
2.30263e-05
3.25242e-05
1.95666e-05
3.32285e-05
1.91368e-05
3.20439e-05
2.01659e-05
2.98451e-05
2.15733e-05
2.7783e-05
2.27881e-05
2.55839e-05
2.37939e-05
2.42063e-05
2.37512e-05
2.35874e-05
2.33884e-05
2.3194e-05
2.30036e-05
2.28283e-05
2.26481e-05
2.25244e-05
2.2346e-05
2.22662e-05
2.21496e-05
2.20701e-05
2.19868e-05
2.19181e-05
2.18821e-05
2.18824e-05
2.18913e-05
2.19239e-05
2.2007e-05
2.20741e-05
2.21809e-05
2.23274e-05
2.24677e-05
2.26326e-05
2.28232e-05
2.30162e-05
2.32311e-05
2.34331e-05
2.3681e-05
2.38277e-05
2.42514e-05
2.38461e-05
2.55638e-05
2.28183e-05
2.77152e-05
2.15504e-05
2.97497e-05
2.01963e-05
3.20375e-05
1.90636e-05
3.32938e-05
1.95937e-05
3.23993e-05
2.30221e-05
3.73009e-05
3.2234e-05
-2.84229e-05
-1.53065e-05
4.49999e-05
5.00059e-05
3.59838e-05
4.52209e-05
3.25426e-05
4.60073e-05
3.20777e-05
4.48269e-05
3.30089e-05
4.26781e-05
3.44633e-05
4.06268e-05
3.56926e-05
3.84651e-05
3.66812e-05
3.70807e-05
3.66554e-05
3.65031e-05
3.62606e-05
3.60692e-05
3.58696e-05
3.56578e-05
3.55244e-05
3.53559e-05
3.52405e-05
3.51063e-05
3.50207e-05
3.49234e-05
3.48799e-05
3.48519e-05
3.48284e-05
3.48304e-05
3.48587e-05
3.48774e-05
3.4942e-05
3.50278e-05
3.51245e-05
3.52447e-05
3.53674e-05
3.5505e-05
3.56711e-05
3.58439e-05
3.60105e-05
3.62258e-05
3.64181e-05
3.66214e-05
3.70254e-05
3.66744e-05
3.84069e-05
3.56582e-05
4.0617e-05
3.43918e-05
4.26396e-05
3.30034e-05
4.47324e-05
3.19294e-05
4.60013e-05
3.23097e-05
4.52422e-05
3.56162e-05
4.99943e-05
4.48186e-05
-1.53979e-05
-2.67511e-05
3.27945e-05
3.82609e-05
2.42066e-05
3.35015e-05
2.0558e-05
3.41983e-05
2.02148e-05
3.29971e-05
2.11648e-05
3.08297e-05
2.25529e-05
2.87373e-05
2.37735e-05
2.65608e-05
2.47787e-05
2.52055e-05
2.47657e-05
2.45935e-05
2.43765e-05
2.41635e-05
2.39763e-05
2.38115e-05
2.36242e-05
2.34762e-05
2.33371e-05
2.32235e-05
2.31196e-05
2.30483e-05
2.29945e-05
2.29348e-05
2.29302e-05
2.29203e-05
2.29431e-05
2.30046e-05
2.30633e-05
2.31456e-05
2.32483e-05
2.334e-05
2.34941e-05
2.36418e-05
2.38077e-05
2.39902e-05
2.41967e-05
2.43965e-05
2.46377e-05
2.47699e-05
2.52106e-05
2.47995e-05
2.65547e-05
2.38083e-05
2.87625e-05
2.25507e-05
3.08201e-05
2.11562e-05
3.30255e-05
2.00961e-05
3.42875e-05
2.05847e-05
3.34338e-05
2.41122e-05
3.8253e-05
3.25699e-05
-2.6906e-05
-1.70713e-05
4.30242e-05
4.7864e-05
3.3883e-05
4.3061e-05
3.02134e-05
4.37908e-05
2.98704e-05
4.26495e-05
3.08163e-05
4.05199e-05
3.22719e-05
3.84526e-05
3.35273e-05
3.62817e-05
3.45096e-05
3.49206e-05
3.44962e-05
3.4342e-05
3.41056e-05
3.39038e-05
3.37208e-05
3.35355e-05
3.33592e-05
3.32118e-05
3.3067e-05
3.29534e-05
3.28403e-05
3.27816e-05
3.26967e-05
3.26708e-05
3.26354e-05
3.26412e-05
3.26511e-05
3.26969e-05
3.27435e-05
3.28382e-05
3.29288e-05
3.30528e-05
3.3194e-05
3.33432e-05
3.35277e-05
3.36808e-05
3.3883e-05
3.4077e-05
3.43221e-05
3.44835e-05
3.49165e-05
3.45298e-05
3.62655e-05
3.35013e-05
3.84605e-05
3.22051e-05
4.04802e-05
3.08157e-05
4.26131e-05
2.97547e-05
4.3868e-05
3.00935e-05
4.3022e-05
3.35432e-05
4.77324e-05
4.29476e-05
-1.76422e-05
-2.49519e-05
3.42256e-05
3.97232e-05
2.57162e-05
3.48118e-05
2.2048e-05
3.56062e-05
2.16194e-05
3.4406e-05
2.25635e-05
3.22513e-05
2.39725e-05
3.01708e-05
2.52294e-05
2.79939e-05
2.62327e-05
2.66342e-05
2.6211e-05
2.60422e-05
2.58273e-05
2.56358e-05
2.54358e-05
2.52523e-05
2.50999e-05
2.49472e-05
2.4827e-05
2.47007e-05
2.4614e-05
2.45097e-05
2.44644e-05
2.44082e-05
2.44046e-05
2.43891e-05
2.44228e-05
2.44509e-05
2.45302e-05
2.4588e-05
2.46964e-05
2.48124e-05
2.49351e-05
2.5089e-05
2.52457e-05
2.54422e-05
2.56232e-05
2.58337e-05
2.60295e-05
2.62043e-05
2.66143e-05
2.62218e-05
2.7976e-05
2.52091e-05
3.01836e-05
2.39337e-05
3.22473e-05
2.25438e-05
3.43757e-05
2.15192e-05
3.56705e-05
2.19608e-05
3.48139e-05
2.54697e-05
3.96923e-05
3.49187e-05
-2.61926e-05
-1.89566e-05
4.10305e-05
4.57135e-05
3.19661e-05
4.09578e-05
2.81598e-05
4.17705e-05
2.77572e-05
4.06293e-05
2.87211e-05
3.84493e-05
3.01863e-05
3.63801e-05
3.14484e-05
3.42075e-05
3.24383e-05
3.28404e-05
3.24191e-05
3.22476e-05
3.2037e-05
3.18237e-05
3.16382e-05
3.14563e-05
3.12808e-05
3.11331e-05
3.09899e-05
3.08827e-05
3.07721e-05
3.07006e-05
3.06356e-05
3.0605e-05
3.05811e-05
3.05783e-05
3.05873e-05
3.06463e-05
3.07046e-05
3.07762e-05
3.08736e-05
3.09955e-05
3.11387e-05
3.12903e-05
3.14451e-05
3.16298e-05
3.18251e-05
3.203e-05
3.22508e-05
3.24186e-05
3.28348e-05
3.24406e-05
3.41978e-05
3.14295e-05
3.63885e-05
3.01321e-05
3.84323e-05
2.87388e-05
4.05683e-05
2.76846e-05
4.18127e-05
2.8067e-05
4.09858e-05
3.14971e-05
4.57879e-05
4.14242e-05
-2.02763e-05
-2.37759e-05
3.59818e-05
4.087e-05
2.67871e-05
3.60699e-05
2.32093e-05
3.68246e-05
2.2832e-05
3.56697e-05
2.37672e-05
3.35094e-05
2.52398e-05
3.14447e-05
2.64913e-05
2.92623e-05
2.75042e-05
2.7914e-05
2.7495e-05
2.73286e-05
2.7097e-05
2.69067e-05
2.67173e-05
2.6536e-05
2.63752e-05
2.62213e-05
2.60957e-05
2.59687e-05
2.58704e-05
2.57857e-05
2.57271e-05
2.56848e-05
2.56622e-05
2.56652e-05
2.56908e-05
2.57177e-05
2.57798e-05
2.5867e-05
2.59613e-05
2.60786e-05
2.62028e-05
2.63534e-05
2.65226e-05
2.67016e-05
2.68918e-05
2.709e-05
2.7305e-05
2.74736e-05
2.7897e-05
2.74928e-05
2.92323e-05
2.64558e-05
3.1456e-05
2.51689e-05
3.34889e-05
2.3792e-05
3.56262e-05
2.27406e-05
3.68842e-05
2.32673e-05
3.59489e-05
2.67371e-05
4.09631e-05
3.60379e-05
-2.49824e-05
-2.06041e-05
3.84991e-05
4.34677e-05
2.96344e-05
3.87905e-05
2.59518e-05
3.95656e-05
2.55508e-05
3.8412e-05
2.65236e-05
3.62454e-05
2.79834e-05
3.41764e-05
2.92407e-05
3.19985e-05
3.02444e-05
3.06377e-05
3.02185e-05
3.00511e-05
2.98303e-05
2.96299e-05
2.94374e-05
2.92602e-05
2.90929e-05
2.89439e-05
2.88062e-05
2.86806e-05
2.85976e-05
2.8507e-05
2.84487e-05
2.84124e-05
2.83944e-05
2.83877e-05
2.84092e-05
2.84461e-05
2.85087e-05
2.85853e-05
2.86902e-05
2.88016e-05
2.89405e-05
2.90938e-05
2.92581e-05
2.94367e-05
2.96264e-05
2.98299e-05
3.00416e-05
3.021e-05
3.0631e-05
3.02353e-05
3.19867e-05
2.9206e-05
3.41948e-05
2.7912e-05
3.6229e-05
2.65257e-05
3.83638e-05
2.54848e-05
3.96144e-05
2.58542e-05
3.87722e-05
2.93368e-05
4.3542e-05
3.8555e-05
-2.19694e-05
-2.24173e-05
3.67024e-05
4.17107e-05
2.77566e-05
3.70807e-05
2.41812e-05
3.78565e-05
2.37662e-05
3.6677e-05
2.47674e-05
3.45199e-05
2.62289e-05
3.24338e-05
2.7514e-05
3.02632e-05
2.85074e-05
2.89083e-05
2.84925e-05
2.83259e-05
2.80989e-05
2.79042e-05
2.77153e-05
2.75288e-05
2.73682e-05
2.72214e-05
2.70851e-05
2.69721e-05
2.68716e-05
2.6787e-05
2.67337e-05
2.66905e-05
2.6667e-05
2.66635e-05
2.6687e-05
2.67288e-05
2.67897e-05
2.68717e-05
2.69651e-05
2.70806e-05
2.72093e-05
2.73619e-05
2.75284e-05
2.77045e-05
2.78962e-05
2.80926e-05
2.83117e-05
2.84821e-05
2.88936e-05
2.85005e-05
3.02419e-05
2.74623e-05
3.24488e-05
2.61621e-05
3.4496e-05
2.47809e-05
3.66199e-05
2.37429e-05
3.78278e-05
2.42361e-05
3.69724e-05
2.77894e-05
4.19711e-05
3.66911e-05
-2.36597e-05
-2.19326e-05
3.71367e-05
4.20914e-05
2.81762e-05
3.74411e-05
2.45935e-05
3.82206e-05
2.41655e-05
3.70766e-05
2.51444e-05
3.49061e-05
2.66232e-05
3.2821e-05
2.78902e-05
3.06467e-05
2.89e-05
2.92911e-05
2.88736e-05
2.87033e-05
2.84905e-05
2.82894e-05
2.80967e-05
2.79171e-05
2.77524e-05
2.7601e-05
2.74723e-05
2.73552e-05
2.7247e-05
2.71737e-05
2.7116e-05
2.70742e-05
2.70494e-05
2.7051e-05
2.70705e-05
2.71113e-05
2.71703e-05
2.72515e-05
2.73462e-05
2.74688e-05
2.76004e-05
2.77441e-05
2.79095e-05
2.80894e-05
2.8282e-05
2.84836e-05
2.86965e-05
2.88632e-05
2.92756e-05
2.88858e-05
3.06352e-05
2.78538e-05
3.28422e-05
2.65521e-05
3.48899e-05
2.51466e-05
3.70018e-05
2.41266e-05
3.82448e-05
2.45057e-05
3.7376e-05
2.80873e-05
4.21133e-05
3.7186e-05
-2.30488e-05
-2.29399e-05
3.70937e-05
4.18042e-05
2.77387e-05
3.70407e-05
2.41687e-05
3.78516e-05
2.37242e-05
3.66634e-05
2.47214e-05
3.44897e-05
2.62115e-05
3.24055e-05
2.74816e-05
3.02333e-05
2.84835e-05
2.88832e-05
2.84619e-05
2.82955e-05
2.8079e-05
2.78812e-05
2.76903e-05
2.75179e-05
2.73496e-05
2.72015e-05
2.70624e-05
2.69477e-05
2.68501e-05
2.67663e-05
2.67062e-05
2.66663e-05
2.66426e-05
2.66434e-05
2.66603e-05
2.67031e-05
2.6765e-05
2.68415e-05
2.69432e-05
2.70556e-05
2.71866e-05
2.73412e-05
2.75097e-05
2.76778e-05
2.78677e-05
2.80709e-05
2.82877e-05
2.84495e-05
2.88704e-05
2.84791e-05
3.02129e-05
2.7448e-05
3.2426e-05
2.61387e-05
3.44781e-05
2.47458e-05
3.65946e-05
2.37017e-05
3.78298e-05
2.4126e-05
3.69803e-05
2.77312e-05
4.17833e-05
3.68699e-05
-2.31672e-05
-2.29734e-05
3.70469e-05
4.15116e-05
2.73146e-05
3.69019e-05
2.39697e-05
3.76208e-05
2.35725e-05
3.64843e-05
2.45525e-05
3.43235e-05
2.60453e-05
3.22385e-05
2.73066e-05
3.00663e-05
2.83148e-05
2.87114e-05
2.82966e-05
2.81291e-05
2.79129e-05
2.77121e-05
2.75225e-05
2.73465e-05
2.71815e-05
2.7034e-05
2.68969e-05
2.67829e-05
2.66889e-05
2.66048e-05
2.6542e-05
2.64993e-05
2.64796e-05
2.64752e-05
2.64948e-05
2.65323e-05
2.65962e-05
2.66742e-05
2.67689e-05
2.68888e-05
2.70226e-05
2.71681e-05
2.73334e-05
2.75158e-05
2.76983e-05
2.78968e-05
2.81158e-05
2.82862e-05
2.86961e-05
2.83031e-05
3.00491e-05
2.7282e-05
3.22514e-05
2.59769e-05
3.42978e-05
2.45789e-05
3.64189e-05
2.35059e-05
3.76722e-05
2.39659e-05
3.67001e-05
2.76572e-05
4.16108e-05
3.62155e-05
-2.30798e-05
-2.32504e-05
3.65665e-05
4.14195e-05
2.73094e-05
3.66739e-05
2.37902e-05
3.7442e-05
2.33299e-05
3.62755e-05
2.43309e-05
3.40993e-05
2.58279e-05
3.20203e-05
2.70877e-05
2.98457e-05
2.80981e-05
2.8494e-05
2.8078e-05
2.79138e-05
2.76956e-05
2.74953e-05
2.7307e-05
2.71305e-05
2.69663e-05
2.68155e-05
2.6683e-05
2.6565e-05
2.64629e-05
2.63874e-05
2.63283e-05
2.62846e-05
2.62651e-05
2.62637e-05
2.62837e-05
2.63211e-05
2.63795e-05
2.64557e-05
2.65546e-05
2.66705e-05
2.68033e-05
2.69501e-05
2.7118e-05
2.72961e-05
2.74827e-05
2.76821e-05
2.78948e-05
2.80669e-05
2.84773e-05
2.80812e-05
2.98257e-05
2.70552e-05
3.20318e-05
2.57633e-05
3.40476e-05
2.43815e-05
3.61574e-05
2.33487e-05
3.74018e-05
2.37538e-05
3.65048e-05
2.74193e-05
4.14665e-05
3.58103e-05
-2.31242e-05
-2.3696e-05
3.67442e-05
4.11839e-05
2.70522e-05
3.64835e-05
2.35954e-05
3.72126e-05
2.31416e-05
3.60835e-05
2.41135e-05
3.3904e-05
2.56321e-05
3.18084e-05
2.69013e-05
2.96493e-05
2.78981e-05
2.82971e-05
2.78825e-05
2.77139e-05
2.74938e-05
2.72975e-05
2.71057e-05
2.69312e-05
2.67685e-05
2.66196e-05
2.64831e-05
2.63657e-05
2.62681e-05
2.61903e-05
2.61282e-05
2.6082e-05
2.60658e-05
2.60697e-05
2.60873e-05
2.61256e-05
2.6184e-05
2.62592e-05
2.63582e-05
2.64722e-05
2.66062e-05
2.67528e-05
2.69179e-05
2.70942e-05
2.72831e-05
2.74844e-05
2.76963e-05
2.78633e-05
2.82772e-05
2.7887e-05
2.96309e-05
2.68573e-05
3.18319e-05
2.55476e-05
3.38619e-05
2.41498e-05
3.5981e-05
2.31132e-05
3.72492e-05
2.35518e-05
3.6281e-05
2.73388e-05
4.11617e-05
3.60302e-05
-2.38682e-05
-2.34382e-05
3.60793e-05
4.1007e-05
2.68558e-05
3.6181e-05
2.34205e-05
3.7008e-05
2.29451e-05
3.58713e-05
2.39414e-05
3.36941e-05
2.54459e-05
3.1622e-05
2.67056e-05
2.94545e-05
2.7708e-05
2.81078e-05
2.76903e-05
2.75251e-05
2.73048e-05
2.71081e-05
2.69144e-05
2.67371e-05
2.65813e-05
2.64296e-05
2.62931e-05
2.61726e-05
2.60815e-05
2.59975e-05
2.59361e-05
2.58981e-05
2.58799e-05
2.58783e-05
2.58937e-05
2.59375e-05
2.59955e-05
2.60729e-05
2.61687e-05
2.62828e-05
2.64176e-05
2.65634e-05
2.67264e-05
2.69063e-05
2.70963e-05
2.72947e-05
2.751e-05
2.76688e-05
2.80876e-05
2.76869e-05
2.94341e-05
2.66625e-05
3.16434e-05
2.53537e-05
3.367e-05
2.39902e-05
3.57436e-05
2.29801e-05
3.702e-05
2.33489e-05
3.6178e-05
2.69357e-05
4.1124e-05
3.64278e-05
-2.42653e-05
-2.40434e-05
3.61774e-05
4.07277e-05
2.67651e-05
3.6114e-05
2.32055e-05
3.68263e-05
2.27864e-05
3.56792e-05
2.37658e-05
3.35272e-05
2.52601e-05
3.14415e-05
2.65281e-05
2.92708e-05
2.75301e-05
2.79296e-05
2.75134e-05
2.73426e-05
2.71252e-05
2.69271e-05
2.67407e-05
2.65634e-05
2.63995e-05
2.62567e-05
2.61182e-05
2.60033e-05
2.59011e-05
2.58202e-05
2.57599e-05
2.57185e-05
2.56992e-05
2.56999e-05
2.57185e-05
2.57616e-05
2.58197e-05
2.58964e-05
2.59917e-05
2.61036e-05
2.62394e-05
2.6388e-05
2.65516e-05
2.67278e-05
2.6914e-05
2.71152e-05
2.73328e-05
2.74933e-05
2.79111e-05
2.75103e-05
2.9258e-05
2.64785e-05
3.14703e-05
2.5169e-05
3.3497e-05
2.37965e-05
3.5596e-05
2.2741e-05
3.68918e-05
2.32061e-05
3.59022e-05
2.69413e-05
4.08525e-05
3.58135e-05
-2.44821e-05
-2.38781e-05
3.58082e-05
4.04486e-05
2.64633e-05
3.58635e-05
2.30455e-05
3.66154e-05
2.26123e-05
3.55063e-05
2.36216e-05
3.33423e-05
2.51003e-05
3.12722e-05
2.63625e-05
2.91099e-05
2.73653e-05
2.77648e-05
2.73492e-05
2.71765e-05
2.69624e-05
2.67673e-05
2.65767e-05
2.63998e-05
2.62396e-05
2.60852e-05
2.59528e-05
2.58368e-05
2.57373e-05
2.56536e-05
2.55905e-05
2.55543e-05
2.55321e-05
2.55344e-05
2.55591e-05
2.55958e-05
2.56547e-05
2.57335e-05
2.58287e-05
2.59407e-05
2.60773e-05
2.6226e-05
2.6388e-05
2.65631e-05
2.67455e-05
2.69483e-05
2.71676e-05
2.73262e-05
2.77469e-05
2.73491e-05
2.90924e-05
2.63173e-05
3.12992e-05
2.50054e-05
3.33247e-05
2.36563e-05
3.53926e-05
2.26405e-05
3.66839e-05
2.30313e-05
3.57716e-05
2.65769e-05
4.07999e-05
3.55093e-05
-2.40424e-05
-2.46267e-05
3.54131e-05
4.03058e-05
2.63738e-05
3.57527e-05
2.2934e-05
3.64626e-05
2.25035e-05
3.53564e-05
2.34646e-05
3.32075e-05
2.49471e-05
3.11234e-05
2.62171e-05
2.89617e-05
2.72187e-05
2.76173e-05
2.71995e-05
2.70332e-05
2.68158e-05
2.66201e-05
2.64304e-05
2.62576e-05
2.60917e-05
2.59355e-05
2.58061e-05
2.56868e-05
2.55861e-05
2.55107e-05
2.54462e-05
2.54056e-05
2.53852e-05
2.5386e-05
2.54071e-05
2.54492e-05
2.55076e-05
2.5584e-05
2.56795e-05
2.57931e-05
2.59238e-05
2.60758e-05
2.62423e-05
2.6416e-05
2.66019e-05
2.68015e-05
2.70198e-05
2.71785e-05
2.75967e-05
2.72001e-05
2.89382e-05
2.61722e-05
3.1147e-05
2.48645e-05
3.31683e-05
2.34887e-05
3.52853e-05
2.24172e-05
3.65925e-05
2.28759e-05
3.56319e-05
2.65475e-05
4.05582e-05
3.55886e-05
-2.48002e-05
-2.45294e-05
3.51575e-05
4.02248e-05
2.61504e-05
3.55507e-05
2.27965e-05
3.63196e-05
2.2335e-05
3.52188e-05
2.33459e-05
3.30367e-05
2.48337e-05
3.09832e-05
2.60859e-05
2.88274e-05
2.70805e-05
2.74856e-05
2.70713e-05
2.68987e-05
2.66829e-05
2.6487e-05
2.62978e-05
2.61197e-05
2.59515e-05
2.58081e-05
2.56669e-05
2.55536e-05
2.54549e-05
2.53756e-05
2.53135e-05
2.52713e-05
2.52513e-05
2.52538e-05
2.52773e-05
2.53202e-05
2.53792e-05
2.54516e-05
2.55482e-05
2.566e-05
2.57911e-05
2.59423e-05
2.61049e-05
2.62851e-05
2.64708e-05
2.66635e-05
2.68781e-05
2.70488e-05
2.74627e-05
2.70657e-05
2.8804e-05
2.60309e-05
3.10122e-05
2.47297e-05
3.30288e-05
2.33976e-05
3.51009e-05
2.23564e-05
3.64202e-05
2.27619e-05
3.5531e-05
2.62842e-05
4.05361e-05
3.55304e-05
-2.48569e-05
-2.40151e-05
3.46704e-05
4.01876e-05
2.60579e-05
3.54745e-05
2.26665e-05
3.62454e-05
2.2228e-05
3.50784e-05
2.32482e-05
3.29296e-05
2.47158e-05
3.08687e-05
2.59735e-05
2.8714e-05
2.69676e-05
2.73692e-05
2.69584e-05
2.67905e-05
2.65712e-05
2.63746e-05
2.61835e-05
2.60041e-05
2.58429e-05
2.56901e-05
2.55543e-05
2.54391e-05
2.53422e-05
2.52599e-05
2.5195e-05
2.51589e-05
2.51383e-05
2.51373e-05
2.51604e-05
2.52029e-05
2.52619e-05
2.53359e-05
2.54314e-05
2.55435e-05
2.5678e-05
2.58263e-05
2.59868e-05
2.61632e-05
2.63492e-05
2.65506e-05
2.67655e-05
2.69341e-05
2.73459e-05
2.69471e-05
2.86883e-05
2.59204e-05
3.0896e-05
2.46249e-05
3.29127e-05
2.32499e-05
3.50466e-05
2.21602e-05
3.63624e-05
2.26498e-05
3.53787e-05
2.63059e-05
4.05232e-05
3.55376e-05
-2.47129e-05
-2.45246e-05
3.44924e-05
4.01375e-05
2.59068e-05
3.53342e-05
2.25324e-05
3.60907e-05
2.21342e-05
3.50031e-05
2.31178e-05
3.28349e-05
2.46107e-05
3.07645e-05
2.58724e-05
2.86181e-05
2.68659e-05
2.72736e-05
2.68559e-05
2.66863e-05
2.64751e-05
2.62764e-05
2.60858e-05
2.59071e-05
2.57413e-05
2.55941e-05
2.54586e-05
2.53416e-05
2.52434e-05
2.51604e-05
2.50995e-05
2.50625e-05
2.50405e-05
2.50419e-05
2.50602e-05
2.51033e-05
2.5165e-05
2.52389e-05
2.53334e-05
2.54475e-05
2.55823e-05
2.57266e-05
2.58882e-05
2.60661e-05
2.62545e-05
2.64547e-05
2.66725e-05
2.6832e-05
2.72421e-05
2.68472e-05
2.8593e-05
2.58209e-05
3.07888e-05
2.45257e-05
3.28185e-05
2.3183e-05
3.49032e-05
2.21357e-05
3.62176e-05
2.25505e-05
3.53113e-05
2.61745e-05
4.04491e-05
3.54183e-05
-2.48805e-05
-2.42062e-05
3.42302e-05
4.01648e-05
2.58501e-05
3.52616e-05
2.24791e-05
3.60693e-05
2.20382e-05
3.49202e-05
2.30511e-05
3.2758e-05
2.45311e-05
3.06956e-05
2.57885e-05
2.85407e-05
2.67974e-05
2.71963e-05
2.6778e-05
2.6612e-05
2.63912e-05
2.61918e-05
2.60034e-05
2.58292e-05
2.56609e-05
2.5512e-05
2.53747e-05
2.52613e-05
2.51626e-05
2.50828e-05
2.50227e-05
2.4984e-05
2.49598e-05
2.49649e-05
2.49864e-05
2.50274e-05
2.50869e-05
2.51636e-05
2.526e-05
2.53745e-05
2.55028e-05
2.56487e-05
2.58155e-05
2.59877e-05
2.61756e-05
2.63756e-05
2.65968e-05
2.67521e-05
2.71643e-05
2.67714e-05
2.85184e-05
2.57386e-05
3.07087e-05
2.44561e-05
3.27242e-05
2.30834e-05
3.48477e-05
2.20325e-05
3.61645e-05
2.24511e-05
3.52465e-05
2.61452e-05
4.02297e-05
3.56263e-05
-2.58687e-05
-2.50275e-05
3.4525e-05
3.99508e-05
2.58404e-05
3.51532e-05
2.23912e-05
3.59803e-05
2.19874e-05
3.48699e-05
2.29635e-05
3.2721e-05
2.4448e-05
3.06378e-05
2.5732e-05
2.84773e-05
2.67379e-05
2.71313e-05
2.6715e-05
2.65477e-05
2.63361e-05
2.61366e-05
2.5944e-05
2.57681e-05
2.56054e-05
2.54545e-05
2.53175e-05
2.5199e-05
2.51023e-05
2.5025e-05
2.49645e-05
2.49247e-05
2.49056e-05
2.49073e-05
2.49276e-05
2.49679e-05
2.50261e-05
2.5105e-05
2.51998e-05
2.53092e-05
2.54434e-05
2.55888e-05
2.57523e-05
2.59238e-05
2.61164e-05
2.63144e-05
2.65343e-05
2.66959e-05
2.71108e-05
2.6706e-05
2.84456e-05
2.568e-05
3.06447e-05
2.43915e-05
3.26701e-05
2.30309e-05
3.47812e-05
2.19735e-05
3.60954e-05
2.23673e-05
3.51993e-05
2.59321e-05
4.01091e-05
3.53032e-05
-2.55607e-05
-2.47358e-05
3.48212e-05
4.00669e-05
2.55883e-05
3.52785e-05
2.22549e-05
3.60023e-05
2.19244e-05
3.48239e-05
2.29321e-05
3.26762e-05
2.44115e-05
3.06003e-05
2.56886e-05
2.84406e-05
2.66918e-05
2.70918e-05
2.66823e-05
2.65114e-05
2.62942e-05
2.60923e-05
2.59014e-05
2.5726e-05
2.55566e-05
2.54101e-05
2.5274e-05
2.51621e-05
2.50623e-05
2.49865e-05
2.49245e-05
2.48912e-05
2.48705e-05
2.48662e-05
2.48881e-05
2.49256e-05
2.49868e-05
2.50629e-05
2.51569e-05
2.52756e-05
2.54015e-05
2.55485e-05
2.5713e-05
2.58846e-05
2.6076e-05
2.62759e-05
2.64961e-05
2.66522e-05
2.70631e-05
2.66663e-05
2.84045e-05
2.56394e-05
3.06043e-05
2.435e-05
3.26312e-05
2.29785e-05
3.47578e-05
2.19178e-05
3.60312e-05
2.23697e-05
3.5165e-05
2.59838e-05
4.00106e-05
3.52042e-05
-2.53405e-05
-2.50097e-05
3.45077e-05
3.98235e-05
2.57331e-05
3.5159e-05
2.22715e-05
3.59791e-05
2.19001e-05
3.48022e-05
2.2919e-05
3.26666e-05
2.43897e-05
3.0587e-05
2.5668e-05
2.84193e-05
2.66731e-05
2.7071e-05
2.66581e-05
2.64927e-05
2.62734e-05
2.60774e-05
2.58843e-05
2.57051e-05
2.55391e-05
2.53912e-05
2.52575e-05
2.51447e-05
2.50464e-05
2.49682e-05
2.4908e-05
2.48689e-05
2.48509e-05
2.4847e-05
2.48656e-05
2.49066e-05
2.49627e-05
2.50405e-05
2.51376e-05
2.52502e-05
2.53807e-05
2.5531e-05
2.56928e-05
2.58661e-05
2.60567e-05
2.62607e-05
2.64767e-05
2.66256e-05
2.70436e-05
2.66472e-05
2.83878e-05
2.56223e-05
3.05796e-05
2.43366e-05
3.26076e-05
2.29624e-05
3.47294e-05
2.19197e-05
3.60069e-05
2.23352e-05
3.5125e-05
2.60353e-05
3.99238e-05
3.52763e-05
-2.57647e-05
-2.43806e-05
3.42326e-05
3.99748e-05
2.56732e-05
3.52215e-05
2.22303e-05
3.59868e-05
2.18937e-05
3.48244e-05
2.29095e-05
3.26592e-05
2.43942e-05
3.05884e-05
2.5669e-05
2.84199e-05
2.66731e-05
2.70736e-05
2.66633e-05
2.64952e-05
2.62751e-05
2.60764e-05
2.58873e-05
2.57042e-05
2.55424e-05
2.53922e-05
2.52587e-05
2.51455e-05
2.50494e-05
2.49682e-05
2.49105e-05
2.48675e-05
2.48463e-05
2.48482e-05
2.48667e-05
2.49075e-05
2.49614e-05
2.50389e-05
2.5139e-05
2.52485e-05
2.53766e-05
2.55327e-05
2.56896e-05
2.58681e-05
2.60568e-05
2.62591e-05
2.64748e-05
2.66305e-05
2.70446e-05
2.66477e-05
2.83834e-05
2.5617e-05
3.05837e-05
2.43206e-05
3.26313e-05
2.29487e-05
3.47181e-05
2.19209e-05
3.59872e-05
2.23476e-05
3.50808e-05
2.60069e-05
4.00112e-05
3.46307e-05
-2.47408e-05
-2.51742e-05
3.46354e-05
3.97912e-05
2.59414e-05
3.51726e-05
2.22786e-05
3.60258e-05
2.191e-05
3.48453e-05
2.29364e-05
3.26921e-05
2.44113e-05
3.06127e-05
2.56754e-05
2.84429e-05
2.66946e-05
2.70914e-05
2.66787e-05
2.65137e-05
2.63013e-05
2.60964e-05
2.59077e-05
2.57307e-05
2.55636e-05
2.54157e-05
2.52838e-05
2.51657e-05
2.50679e-05
2.49917e-05
2.49289e-05
2.48926e-05
2.48687e-05
2.48675e-05
2.48876e-05
2.49249e-05
2.49797e-05
2.50534e-05
2.51523e-05
2.52675e-05
2.54022e-05
2.55517e-05
2.57105e-05
2.58907e-05
2.60803e-05
2.62798e-05
2.64901e-05
2.66581e-05
2.70624e-05
2.6668e-05
2.84045e-05
2.56434e-05
3.0603e-05
2.43602e-05
3.26337e-05
2.29637e-05
3.47552e-05
2.19512e-05
3.60041e-05
2.23928e-05
3.50715e-05
2.61681e-05
3.99059e-05
3.51714e-05
-2.51156e-05
-2.51173e-05
3.51534e-05
3.98219e-05
2.59152e-05
3.52576e-05
2.23281e-05
3.60831e-05
2.19503e-05
3.48923e-05
2.29768e-05
3.27248e-05
2.4455e-05
3.06478e-05
2.5721e-05
2.84836e-05
2.67335e-05
2.71359e-05
2.67182e-05
2.65511e-05
2.63358e-05
2.61395e-05
2.59475e-05
2.5771e-05
2.56067e-05
2.54576e-05
2.53241e-05
2.52102e-05
2.51101e-05
2.50322e-05
2.49712e-05
2.49287e-05
2.49098e-05
2.49095e-05
2.49238e-05
2.49607e-05
2.50209e-05
2.50976e-05
2.51925e-05
2.53088e-05
2.54443e-05
2.55857e-05
2.57534e-05
2.59295e-05
2.61235e-05
2.63233e-05
2.65284e-05
2.66976e-05
2.71059e-05
2.67071e-05
2.84415e-05
2.56848e-05
3.06386e-05
2.43919e-05
3.26738e-05
2.30179e-05
3.47637e-05
2.20115e-05
3.60392e-05
2.23943e-05
3.51197e-05
2.6179e-05
4.00749e-05
3.51447e-05
-2.49269e-05
-2.52526e-05
3.51537e-05
3.98098e-05
2.61095e-05
3.52671e-05
2.23866e-05
3.61286e-05
2.2024e-05
3.49666e-05
2.30213e-05
3.27848e-05
2.45179e-05
3.0718e-05
2.57909e-05
2.85502e-05
2.67957e-05
2.71946e-05
2.67771e-05
2.66115e-05
2.63949e-05
2.62004e-05
2.60176e-05
2.58347e-05
2.56657e-05
2.55172e-05
2.53833e-05
2.52707e-05
2.5168e-05
2.50938e-05
2.50359e-05
2.49916e-05
2.49672e-05
2.49677e-05
2.49827e-05
2.50218e-05
2.5079e-05
2.51563e-05
2.52524e-05
2.53709e-05
2.54996e-05
2.56463e-05
2.58138e-05
2.59914e-05
2.61831e-05
2.63822e-05
2.65905e-05
2.675e-05
2.7164e-05
2.67749e-05
2.85065e-05
2.57479e-05
3.0693e-05
2.44548e-05
3.27357e-05
2.30653e-05
3.48404e-05
2.20777e-05
3.60678e-05
2.24833e-05
3.5159e-05
2.62229e-05
4.0032e-05
3.55083e-05
-2.49198e-05
-2.5228e-05
3.49276e-05
3.98628e-05
2.61742e-05
3.533e-05
2.25114e-05
3.62087e-05
2.20969e-05
3.50573e-05
2.3095e-05
3.28684e-05
2.46065e-05
3.07971e-05
2.5867e-05
2.86218e-05
2.6877e-05
2.72734e-05
2.68582e-05
2.6689e-05
2.64744e-05
2.62775e-05
2.60882e-05
2.59104e-05
2.5746e-05
2.55954e-05
2.5463e-05
2.53523e-05
2.52463e-05
2.51722e-05
2.51115e-05
2.50681e-05
2.50444e-05
2.50444e-05
2.50593e-05
2.51009e-05
2.51563e-05
2.52325e-05
2.53326e-05
2.54485e-05
2.55737e-05
2.57277e-05
2.58944e-05
2.60728e-05
2.62611e-05
2.64594e-05
2.66698e-05
2.68312e-05
2.72435e-05
2.68575e-05
2.85792e-05
2.58235e-05
3.07792e-05
2.45375e-05
3.27955e-05
2.31523e-05
3.49079e-05
2.2158e-05
3.61605e-05
2.25468e-05
3.52741e-05
2.62009e-05
4.00227e-05
3.52495e-05
-2.45752e-05
-2.50801e-05
3.52776e-05
4.00753e-05
2.61698e-05
3.54385e-05
2.26006e-05
3.62779e-05
2.2226e-05
3.51407e-05
2.31962e-05
3.29815e-05
2.46927e-05
3.08944e-05
2.59698e-05
2.87192e-05
2.69768e-05
2.73744e-05
2.69589e-05
2.67924e-05
2.6573e-05
2.63735e-05
2.61833e-05
2.60079e-05
2.5843e-05
2.56928e-05
2.55604e-05
2.54464e-05
2.53452e-05
2.52686e-05
2.5205e-05
2.51643e-05
2.51436e-05
2.51421e-05
2.51578e-05
2.51941e-05
2.52552e-05
2.53334e-05
2.5429e-05
2.55415e-05
2.56794e-05
2.58273e-05
2.59923e-05
2.61715e-05
2.63572e-05
2.65483e-05
2.67725e-05
2.69302e-05
2.73415e-05
2.69474e-05
2.86802e-05
2.59206e-05
3.08764e-05
2.46279e-05
3.29026e-05
2.3249e-05
3.49973e-05
2.22782e-05
3.62194e-05
2.26863e-05
3.53256e-05
2.64571e-05
4.01316e-05
3.52343e-05
-2.47802e-05
-2.48481e-05
3.51778e-05
4.02273e-05
2.63218e-05
3.55586e-05
2.27296e-05
3.64179e-05
2.23409e-05
3.52548e-05
2.33282e-05
3.30948e-05
2.48146e-05
3.10128e-05
2.60806e-05
2.88385e-05
2.71002e-05
2.74931e-05
2.70772e-05
2.69111e-05
2.66857e-05
2.64892e-05
2.63015e-05