/*--------------------------------*- C++ -*----------------------------------*\
  =========                 |
  \\      /  F ield         | OpenFOAM: The Open Source CFD Toolbox
   \\    /   O peration     | Website:  https://openfoam.org
    \\  /    A nd           | Version:  11
     \\/     M anipulation  |
\*---------------------------------------------------------------------------*/
FoamFile
{
    format      ascii;
    class       surfaceScalarField;
    location    "0";
    object      phi;
}
// * * * * * * * * * * * * * * * * * * * * * * * * * * * * * * * * * * * * * //

dimensions      [0 3 -1 0 0 0 0];

internalField   nonuniform List<scalar> 
8064
(
0.000787914
0.0148371
0.00148565
0.0149273
0.00211127
0.0149994
0.00267784
0.0150584
0.003195
0.0151078
0.00367001
0.01515
0.00410841
0.0151866
0.00451454
0.0152189
0.0048918
0.0152477
0.00524297
0.0152738
0.00557027
0.0152977
0.00587558
0.0153197
0.00616043
0.0153401
0.00642612
0.0153593
0.00667378
0.0153773
0.00690434
0.0153944
0.00711862
0.0154107
0.00731732
0.0154263
0.00750106
0.0154413
0.00767037
0.0154557
0.0078257
0.0154697
0.00796746
0.0154832
0.00809599
0.0154965
0.00821158
0.0155094
0.00831449
0.0155221
0.00840493
0.0155345
0.00848308
0.0155468
0.00854907
0.015559
0.00860303
0.015571
0.00864502
0.015583
0.0086751
0.0155949
0.00869328
0.0156068
0.00869955
0.0156187
0.00869387
0.0156307
0.00867618
0.0156427
0.00864638
0.0156548
0.00860433
0.015667
0.00854987
0.0156794
0.00848279
0.0156921
0.00840288
0.0157049
0.00830983
0.015718
0.00820335
0.0157315
0.00808304
0.0157453
0.00794848
0.0157595
0.00779918
0.0157743
0.00763459
0.0157896
0.00745405
0.0158055
0.00725683
0.0158222
0.00704207
0.0158397
0.0068088
0.0158583
0.00655587
0.0158779
0.00628194
0.0158989
0.00598544
0.0159215
0.00566446
0.015946
0.00531675
0.0159727
0.0049395
0.0160022
0.00452921
0.0160353
0.00408139
0.0160728
0.00359015
0.0161162
0.00304738
0.0161678
0.00244143
0.0162309
0.00175461
0.0163118
0.000957947
0.0164216
0.0165829
0.000524832
0.0143122
0.00103907
0.014413
0.00153484
0.0145036
0.00200822
0.014585
0.00245765
0.0146583
0.0028829
0.0147247
0.00328444
0.014785
0.00366312
0.0148401
0.00401995
0.0148908
0.00435597
0.0149378
0.0046722
0.0149814
0.00496961
0.0150222
0.00524909
0.0150606
0.00551144
0.0150969
0.0057574
0.0151313
0.00598763
0.0151642
0.00620271
0.0151956
0.00640317
0.0152258
0.00658948
0.0152549
0.00676206
0.0152831
0.00692126
0.0153104
0.00706741
0.015337
0.00720079
0.015363
0.00732165
0.0153885
0.00743019
0.0154135
0.00752658
0.0154381
0.00761098
0.0154624
0.00768349
0.0154864
0.0077442
0.0155103
0.00779318
0.015534
0.00783045
0.0155576
0.00785602
0.0155812
0.00786986
0.0156048
0.00787193
0.0156286
0.00786215
0.0156524
0.00784042
0.0156765
0.0078066
0.0157008
0.00776053
0.0157255
0.007702
0.0157506
0.00763078
0.0157761
0.0075466
0.0158022
0.00744914
0.0158289
0.00733803
0.0158564
0.00721287
0.0158847
0.00707317
0.015914
0.0069184
0.0159443
0.00674794
0.015976
0.00656108
0.016009
0.00635703
0.0160438
0.00613485
0.0160804
0.00589348
0.0161193
0.0056317
0.0161607
0.00534805
0.0162051
0.00504086
0.0162531
0.00470813
0.0163054
0.0043475
0.0163628
0.00395612
0.0164266
0.00353054
0.0164983
0.00306662
0.0165801
0.00255936
0.016675
0.00200303
0.0167872
0.00139173
0.0169231
0.000721869
0.0170915
0.0173048
0.000404873
0.0139073
0.000808304
0.0140095
0.00120627
0.0141056
0.00159556
0.0141957
0.00197383
0.0142801
0.0023394
0.0143591
0.00269119
0.0144332
0.00302853
0.0145028
0.0033511
0.0145683
0.00365879
0.0146301
0.00395165
0.0146885
0.00422985
0.014744
0.00449361
0.0147969
0.00474321
0.0148473
0.00497892
0.0148956
0.00520104
0.014942
0.00540985
0.0149868
0.00560563
0.01503
0.00578864
0.0150719
0.00595912
0.0151126
0.00611728
0.0151522
0.00626333
0.015191
0.00639744
0.0152289
0.00651977
0.0152662
0.00663045
0.0153028
0.00672959
0.015339
0.00681727
0.0153747
0.00689357
0.0154101
0.00695854
0.0154453
0.00701219
0.0154803
0.00705454
0.0155153
0.00708555
0.0155502
0.00710519
0.0155852
0.00711339
0.0156203
0.00711007
0.0156557
0.0070951
0.0156914
0.00706835
0.0157276
0.00702965
0.0157642
0.00697879
0.0158014
0.00691555
0.0158393
0.00683966
0.0158781
0.00675081
0.0159177
0.00664867
0.0159585
0.00653282
0.0160005
0.00640284
0.0160439
0.00625822
0.0160889
0.00609838
0.0161358
0.0059227
0.0161847
0.00573045
0.016236
0.00552079
0.01629
0.00529282
0.0163472
0.00504547
0.016408
0.00477754
0.016473
0.00448766
0.016543
0.00417429
0.0166188
0.00383566
0.0167015
0.0034698
0.0167925
0.00307453
0.0168936
0.00264757
0.0170071
0.00218667
0.0171359
0.00169009
0.0172838
0.00115746
0.0174557
0.000591368
0.0176575
0.0178961
0.000329938
0.0135774
0.000660266
0.0136792
0.000988854
0.013777
0.00131375
0.0138708
0.00163323
0.0139606
0.00194584
0.0140465
0.00225039
0.0141286
0.00254594
0.0142072
0.00283176
0.0142824
0.00310728
0.0143545
0.00337213
0.0144237
0.00362602
0.0144901
0.00386878
0.0145541
0.0041003
0.0146158
0.00432055
0.0146754
0.00452952
0.0147331
0.00472723
0.014789
0.00491373
0.0148435
0.00508909
0.0148965
0.00525338
0.0149483
0.00540666
0.014999
0.005549
0.0150486
0.00568046
0.0150974
0.0058011
0.0151455
0.00591096
0.0151929
0.00601009
0.0152398
0.0060985
0.0152863
0.0061762
0.0153324
0.0062432
0.0153783
0.00629947
0.015424
0.00634498
0.0154697
0.00637967
0.0155155
0.00640349
0.0155614
0.00641634
0.0156075
0.00641812
0.015654
0.0064087
0.0157009
0.00638793
0.0157483
0.00635563
0.0157965
0.00631161
0.0158454
0.00625565
0.0158953
0.00618748
0.0159462
0.00610681
0.0159984
0.00601332
0.016052
0.00590666
0.0161072
0.00578641
0.0161642
0.00565211
0.0162232
0.00550328
0.0162846
0.00533935
0.0163486
0.00515969
0.0164157
0.00496361
0.0164861
0.00475035
0.0165605
0.00451905
0.0166393
0.00426879
0.0167233
0.00399853
0.0168132
0.00370719
0.0169101
0.00339357
0.0170151
0.00305649
0.0171296
0.00269476
0.0172553
0.0023074
0.0173944
0.00189375
0.0175495
0.00145389
0.0177237
0.000989118
0.0179205
0.000502592
0.0181441
0.0183987
0.000276471
0.0133009
0.000553843
0.0134018
0.000830812
0.0135001
0.00110613
0.0135955
0.00137862
0.0136881
0.0016472
0.0137779
0.00191088
0.013865
0.00216882
0.0139493
0.00242026
0.014031
0.00266457
0.0141102
0.00290123
0.014187
0.00312978
0.0142616
0.00334987
0.014334
0.00356121
0.0144044
0.00376356
0.014473
0.00395674
0.0145399
0.00414061
0.0146052
0.00431505
0.0146691
0.00447997
0.0147316
0.00463531
0.014793
0.004781
0.0148533
0.00491702
0.0149126
0.00504331
0.0149712
0.00515985
0.015029
0.00526659
0.0150862
0.00536351
0.0151429
0.00545056
0.0151993
0.00552769
0.0152553
0.00559486
0.0153111
0.005652
0.0153669
0.00569904
0.0154227
0.00573589
0.0154786
0.00576247
0.0155348
0.00577865
0.0155913
0.00578432
0.0156483
0.00577933
0.0157059
0.00576354
0.0157641
0.00573675
0.0158233
0.00569878
0.0158834
0.00564939
0.0159447
0.00558836
0.0160073
0.0055154
0.0160714
0.00543023
0.0161372
0.0053325
0.0162049
0.00522186
0.0162748
0.00509792
0.0163472
0.00496024
0.0164223
0.00480835
0.0165006
0.00464172
0.0165823
0.0044598
0.0166681
0.00426198
0.0167583
0.00404761
0.0168537
0.00381602
0.0169549
0.00356647
0.0170628
0.00329826
0.0171783
0.00301066
0.0173027
0.00270305
0.0174372
0.0023749
0.0175835
0.00202596
0.0177434
0.00165636
0.0179191
0.00126683
0.0181132
0.000858944
0.0183284
0.000435375
0.0185676
0.0188341
0.000235633
0.0130653
0.00047227
0.0131652
0.000709061
0.0132633
0.000945153
0.0133594
0.00117971
0.0134536
0.00141194
0.0135457
0.00164108
0.0136358
0.00186642
0.013724
0.00208732
0.0138101
0.00230319
0.0138944
0.0025135
0.0139767
0.00271778
0.0140573
0.00291562
0.0141362
0.00310665
0.0142134
0.00329056
0.0142891
0.00346707
0.0143634
0.00363594
0.0144363
0.00379696
0.014508
0.00394995
0.0145786
0.00409474
0.0146482
0.00423121
0.0147168
0.00435921
0.0147846
0.00447863
0.0148518
0.00458938
0.0149183
0.00469134
0.0149843
0.00478442
0.0150499
0.00486853
0.0151152
0.00494357
0.0151803
0.00500944
0.0152453
0.00506604
0.0153103
0.00511327
0.0153755
0.00515101
0.0154409
0.00517914
0.0155067
0.00519753
0.0155729
0.00520604
0.0156398
0.00520452
0.0157074
0.0051928
0.0157759
0.0051707
0.0158454
0.00513803
0.0159161
0.00509456
0.0159882
0.00504009
0.0160618
0.00497434
0.0161371
0.00489706
0.0162145
0.00480794
0.016294
0.00470668
0.0163761
0.00459293
0.016461
0.00446632
0.0165489
0.00432646
0.0166404
0.00417294
0.0167359
0.00400532
0.0168357
0.00382314
0.0169405
0.00362592
0.0170509
0.00341319
0.0171677
0.00318447
0.0172915
0.00293933
0.0174235
0.00267738
0.0175647
0.00239836
0.0177163
0.00210214
0.0178797
0.00178884
0.0180567
0.00145893
0.0182491
0.0011133
0.0184588
0.000753415
0.0186883
0.00038139
0.0189397
0.0192155
0.00020309
0.0128622
0.000407182
0.0129611
0.000611664
0.0130588
0.000815926
0.0131552
0.00101936
0.0132502
0.00122135
0.0133437
0.00142132
0.0134359
0.0016187
0.0135266
0.00181296
0.0136159
0.00200358
0.0137038
0.00219009
0.0137902
0.00237205
0.0138754
0.00254906
0.0139592
0.00272073
0.0140417
0.00288675
0.0141231
0.00304678
0.0142034
0.00320056
0.0142826
0.00334782
0.0143608
0.00348833
0.0144381
0.00362188
0.0145146
0.00374828
0.0145904
0.00386734
0.0146656
0.00397889
0.0147402
0.00408279
0.0148144
0.00417888
0.0148882
0.00426702
0.0149617
0.00434708
0.0150351
0.00441891
0.0151084
0.00448239
0.0151818
0.00453739
0.0152553
0.00458376
0.0153291
0.00462138
0.0154033
0.0046501
0.015478
0.00466977
0.0155533
0.00468023
0.0156293
0.00468134
0.0157063
0.00467291
0.0157843
0.00465476
0.0158636
0.0046267
0.0159442
0.00458853
0.0160263
0.00454004
0.0161103
0.00448098
0.0161962
0.00441112
0.0162844
0.0043302
0.016375
0.00423795
0.0164684
0.00413406
0.0165649
0.00401825
0.0166648
0.00389019
0.0167685
0.00374955
0.0168765
0.003596
0.0169893
0.00342921
0.0171073
0.00324883
0.0172313
0.00305455
0.017362
0.00284608
0.0175
0.00262319
0.0176464
0.00238571
0.0178022
0.00213359
0.0179684
0.00186692
0.0181464
0.00158602
0.0183376
0.00129144
0.0185437
0.000984079
0.0187662
0.000665197
0.0190072
0.000336479
0.0192684
0.019552
0.00017645
0.0126858
0.000353832
0.0127837
0.000531704
0.0128809
0.00070961
0.0129772
0.000887082
0.0130727
0.00106365
0.0131672
0.00123886
0.0132607
0.00141225
0.0133532
0.00158338
0.0134448
0.00175183
0.0135353
0.00191717
0.0136249
0.00207901
0.0137135
0.002237
0.0138012
0.00239077
0.013888
0.00253999
0.0139739
0.00268436
0.014059
0.00282358
0.0141433
0.00295739
0.014227
0.00308552
0.01431
0.00320775
0.0143924
0.00332385
0.0144743
0.00343361
0.0145558
0.00353683
0.014637
0.00363333
0.0147179
0.00372293
0.0147986
0.00380546
0.0148792
0.00388075
0.0149598
0.00394864
0.0150406
0.00400897
0.0151215
0.00406159
0.0152027
0.00410635
0.0152844
0.00414307
0.0153666
0.00417163
0.0154494
0.00419183
0.0155331
0.00420354
0.0156176
0.00420657
0.0157033
0.00420075
0.0157901
0.00418591
0.0158784
0.00416185
0.0159682
0.00412839
0.0160598
0.00408531
0.0161534
0.00403241
0.0162491
0.00396948
0.0163473
0.00389627
0.0164482
0.00381256
0.0165521
0.00371809
0.0166593
0.00361263
0.0167702
0.00349592
0.0168852
0.0033677
0.0170047
0.00322772
0.0171293
0.00307574
0.0172593
0.00291153
0.0173956
0.00273489
0.0175386
0.00254567
0.0176893
0.00234376
0.0178483
0.00212914
0.0180168
0.00190188
0.0181957
0.0016622
0.0183861
0.00141046
0.0185894
0.00114725
0.0188069
0.000873376
0.0190401
0.000589928
0.0192907
0.000298262
0.0195601
0.0198503
0.0001542
0.0125316
0.000309261
0.0126287
0.000464843
0.0127254
0.000620588
0.0128215
0.000776132
0.0129171
0.000931107
0.0130122
0.00108514
0.0131066
0.00123787
0.0132005
0.00138892
0.0132937
0.00153794
0.0133863
0.00168457
0.0134783
0.00182848
0.0135696
0.00196932
0.0136604
0.00210679
0.0137505
0.00224058
0.0138401
0.00237038
0.0139292
0.00249594
0.0140178
0.00261696
0.014106
0.00273321
0.0141937
0.00284444
0.0142812
0.00295042
0.0143684
0.00305092
0.0144553
0.00314574
0.0145422
0.00323467
0.0146289
0.00331752
0.0147157
0.0033941
0.0148026
0.00346424
0.0148897
0.00352774
0.0149771
0.00358445
0.0150648
0.00363419
0.015153
0.00367678
0.0152418
0.00371207
0.0153313
0.00373989
0.0154216
0.00376007
0.0155129
0.00377244
0.0156053
0.00377683
0.0156989
0.00377306
0.0157939
0.00376096
0.0158905
0.00374035
0.0159888
0.00371104
0.0160891
0.00367285
0.0161916
0.00362558
0.0162964
0.00356904
0.0164039
0.00350302
0.0165142
0.00342732
0.0166278
0.00334174
0.0167449
0.00324608
0.0168659
0.00314012
0.0169912
0.00302367
0.0171212
0.00289656
0.0172564
0.00275861
0.0173973
0.00260966
0.0175445
0.00244962
0.0176987
0.0022784
0.0178605
0.002096
0.0180308
0.00190246
0.0182104
0.00169794
0.0184002
0.00148269
0.0186014
0.00125711
0.018815
0.00102175
0.0190423
0.000777337
0.0192846
0.000524795
0.0195432
0.000265246
0.0198197
0.0201156
0.000135357
0.0123962
0.000271496
0.0124925
0.000408151
0.0125887
0.000545037
0.0126846
0.000681863
0.0127803
0.000818331
0.0128757
0.000954138
0.0129708
0.00108898
0.0130656
0.00122256
0.0131601
0.00135457
0.0132543
0.0014847
0.0133481
0.00161267
0.0134416
0.00173819
0.0135348
0.00186096
0.0136277
0.00198072
0.0137203
0.00209719
0.0138127
0.00221011
0.0139049
0.00231923
0.0139968
0.0024243
0.0140887
0.0025251
0.0141804
0.00262138
0.0142721
0.00271293
0.0143638
0.00279954
0.0144556
0.002881
0.0145475
0.00295711
0.0146396
0.00302768
0.0147321
0.00309251
0.0148249
0.00315143
0.0149181
0.00320426
0.015012
0.0032508
0.0151064
0.00329091
0.0152017
0.00332439
0.0152978
0.00335107
0.0153949
0.0033708
0.0154932
0.00338339
0.0155927
0.00338868
0.0156936
0.00338649
0.0157961
0.00337666
0.0159003
0.00335901
0.0160065
0.00333336
0.0161148
0.00329955
0.0162254
0.00325739
0.0163385
0.00320671
0.0164545
0.00314733
0.0165736
0.00307907
0.0166961
0.00300178
0.0168222
0.00291527
0.0169524
0.00281938
0.0170871
0.00271397
0.0172266
0.0025989
0.0173714
0.00247406
0.0175221
0.00233936
0.0176792
0.00219473
0.0178433
0.00204016
0.0180151
0.0018757
0.0181952
0.00170145
0.0183846
0.00151758
0.0185841
0.00132439
0.0187946
0.00112224
0.0190172
0.000911645
0.0192529
0.000693259
0.019503
0.000467869
0.0197686
0.000236422
0.0200512
0.020352
0.000119228
0.012277
0.000239162
0.0123726
0.00035959
0.0124682
0.000480278
0.0125639
0.000600989
0.0126596
0.000721479
0.0127552
0.000841498
0.0128508
0.000960794
0.0129463
0.00107911
0.0130418
0.00119619
0.0131372
0.00131179
0.0132325
0.00142563
0.0133278
0.00153748
0.013423
0.00164708
0.0135181
0.00175418
0.0136132
0.00185854
0.0137083
0.00195991
0.0138035
0.00205808
0.0138987
0.0021528
0.0139939
0.00224385
0.0140893
0.00233102
0.0141849
0.00241409
0.0142807
0.00249286
0.0143768
0.00256712
0.0144732
0.00263668
0.0145701
0.00270134
0.0146674
0.00276091
0.0147653
0.00281521
0.0148638
0.00286406
0.0149631
0.00290729
0.0150632
0.0029447
0.0151643
0.00297614
0.0152664
0.00300143
0.0153696
0.0030204
0.0154742
0.00303289
0.0155802
0.00303872
0.0156878
0.00303774
0.0157971
0.00302976
0.0159083
0.00301464
0.0160216
0.00299221
0.0161372
0.0029623
0.0162553
0.00292475
0.0163761
0.00287941
0.0164999
0.00282612
0.0166269
0.00276473
0.0167574
0.00269508
0.0168918
0.00261706
0.0170304
0.00253051
0.0171736
0.00243534
0.0173218
0.00233144
0.0174753
0.00221874
0.0176348
0.00209718
0.0178008
0.00196675
0.0179737
0.00182747
0.0181543
0.0016794
0.0183433
0.00152269
0.0185413
0.00135752
0.0187493
0.00118417
0.0189679
0.001003
0.0191983
0.00081448
0.0194414
0.000619173
0.0196983
0.000417767
0.01997
0.00021107
0.0202579
0.0205631
0.000105302
0.0121717
0.000211246
0.0122666
0.000317649
0.0123618
0.000424322
0.0124572
0.000531067
0.0125528
0.000637679
0.0126486
0.000743953
0.0127445
0.000849673
0.0128406
0.000954627
0.0129368
0.00105859
0.0130332
0.00116136
0.0131298
0.00126269
0.0132264
0.00136238
0.0133233
0.00146019
0.0134203
0.00155592
0.0135175
0.00164934
0.0136149
0.00174025
0.0137126
0.00182841
0.0138105
0.00191363
0.0139087
0.00199569
0.0140072
0.0020744
0.0141062
0.00214955
0.0142055
0.00222095
0.0143054
0.00228839
0.0144058
0.0023517
0.0145067
0.00241068
0.0146084
0.00246516
0.0147108
0.00251494
0.014814
0.00255986
0.0149182
0.00259973
0.0150233
0.0026344
0.0151296
0.00266368
0.0152371
0.00268741
0.0153459
0.00270543
0.0154562
0.00271757
0.015568
0.00272367
0.0156817
0.00272358
0.0157972
0.00271713
0.0159147
0.00270417
0.0160346
0.00268454
0.0161568
0.0026581
0.0162817
0.0026247
0.0164095
0.0025842
0.0165404
0.00253645
0.0166746
0.00248133
0.0168126
0.00241871
0.0169545
0.00234848
0.0171007
0.00227054
0.0172516
0.00218478
0.0174075
0.00209116
0.017569
0.0019896
0.0177364
0.0018801
0.0179103
0.00176266
0.0180912
0.00163732
0.0182797
0.00150418
0.0184764
0.00136336
0.0186821
0.00121507
0.0188975
0.00105957
0.0191234
0.000897191
0.0193607
0.000728358
0.0196102
0.000553575
0.0198731
0.000373441
0.0201502
0.000188653
0.0204427
0.0207517
9.32095e-05
0.0120785
0.000186993
0.0121728
0.000281202
0.0122676
0.000375676
0.0123627
0.000470249
0.0124582
0.000564751
0.0125541
0.000659003
0.0126503
0.000752828
0.0127468
0.00084604
0.0128436
0.000938454
0.0129408
0.00102988
0.0130383
0.00112012
0.0131362
0.00120899
0.0132344
0.0012963
0.013333
0.00138184
0.0134319
0.00146543
0.0135313
0.00154687
0.0136311
0.00162596
0.0137314
0.00170252
0.0138321
0.00177636
0.0139334
0.00184728
0.0140352
0.00191511
0.0141377
0.00197965
0.0142408
0.00204073
0.0143447
0.00209816
0.0144493
0.00215177
0.0145548
0.00220139
0.0146612
0.00224683
0.0147686
0.00228794
0.0148771
0.00232453
0.0149867
0.00235646
0.0150977
0.00238356
0.01521
0.00240565
0.0153238
0.00242259
0.0154392
0.00243423
0.0155564
0.00244039
0.0156755
0.00244095
0.0157966
0.00243573
0.0159199
0.00242461
0.0160457
0.00240744
0.016174
0.00238408
0.0163051
0.00235439
0.0164392
0.00231824
0.0165765
0.00227552
0.0167173
0.00222611
0.016862
0.0021699
0.0170107
0.00210679
0.0171638
0.00203671
0.0173216
0.00195957
0.0174846
0.00187533
0.0176532
0.00178397
0.0178277
0.00168547
0.0180088
0.00157985
0.0181968
0.00146718
0.0183923
0.00134755
0.0185961
0.0012211
0.0188086
0.00108802
0.0190306
0.000948556
0.0192629
0.000803017
0.0195062
0.000651779
0.0197615
0.00049529
0.0200295
0.00033408
0.0203114
0.000168754
0.020608
0.0209205
8.26452e-05
0.0119958
0.00016581
0.0120897
0.000249364
0.0121841
0.000333172
0.0122789
0.000417091
0.0123743
0.000500978
0.0124702
0.000584683
0.0125665
0.000668051
0.0126634
0.000750924
0.0127607
0.000833141
0.0128586
0.000914537
0.0129569
0.000994947
0.0130558
0.0010742
0.0131551
0.00115213
0.0132551
0.00122856
0.0133555
0.00130332
0.0134566
0.00137624
0.0135582
0.00144714
0.0136605
0.00151585
0.0137634
0.00158219
0.0138671
0.00164601
0.0139714
0.00170711
0.0140766
0.00176534
0.0141826
0.00182052
0.0142895
0.00187249
0.0143973
0.00192108
0.0145062
0.00196613
0.0146161
0.00200747
0.0147272
0.00204494
0.0148396
0.00207839
0.0149533
0.00210766
0.0150684
0.00213259
0.015185
0.00215303
0.0153033
0.00216883
0.0154234
0.00217985
0.0155454
0.00218593
0.0156694
0.00218694
0.0157956
0.00218273
0.0159241
0.00217318
0.0160552
0.00215814
0.016189
0.0021375
0.0163257
0.00211112
0.0164655
0.0020789
0.0166087
0.00204071
0.0167555
0.00199647
0.0169062
0.00194607
0.0170611
0.00188944
0.0172204
0.0018265
0.0173846
0.00175721
0.0175539
0.00168152
0.0177289
0.00159942
0.0179098
0.00151091
0.0180973
0.00141602
0.0182917
0.00131482
0.0184935
0.00120741
0.0187035
0.00109392
0.0189221
0.000974533
0.01915
0.000849472
0.019388
0.000719023
0.0196367
0.000583521
0.019897
0.00044337
0.0201697
0.000299032
0.0204557
0.000151041
0.020756
0.0210715
7.33899e-05
0.0119224
0.000147239
0.0120158
0.000221443
0.0121098
0.000295886
0.0122045
0.000370447
0.0122997
0.000445002
0.0123956
0.000519421
0.0124921
0.000593572
0.0125892
0.000667317
0.012687
0.000740518
0.0127854
0.000813033
0.0128844
0.000884714
0.0129841
0.000955415
0.0130844
0.00102499
0.0131855
0.00109327
0.0132872
0.00116012
0.0133897
0.00122539
0.0134929
0.0012889
0.013597
0.00135052
0.0137018
0.00141008
0.0138075
0.00146742
0.0139141
0.00152239
0.0140216
0.00157484
0.0141301
0.0016246
0.0142397
0.00167153
0.0143504
0.00171547
0.0144622
0.00175627
0.0145753
0.00179377
0.0146897
0.00182782
0.0148055
0.00185829
0.0149228
0.00188501
0.0150417
0.00190785
0.0151622
0.00192667
0.0152845
0.00194131
0.0154088
0.00195164
0.015535
0.00195754
0.0156635
0.00195885
0.0157943
0.00195546
0.0159275
0.00194724
0.0160634
0.00193407
0.0162022
0.00191582
0.016344
0.00189239
0.016489
0.00186368
0.0166374
0.00182957
0.0167896
0.00178999
0.0169458
0.00174485
0.0171062
0.00169408
0.0172712
0.00163763
0.017441
0.00157544
0.0176161
0.0015075
0.0177968
0.00143379
0.0179836
0.00135433
0.0181767
0.00126915
0.0183768
0.00117832
0.0185844
0.00108193
0.0187999
0.000980112
0.0190239
0.000873037
0.0192571
0.000760911
0.0195001
0.00064399
0.0197536
0.000522577
0.0200184
0.00039703
0.0202952
0.000267761
0.020585
0.00013524
0.0208885
0.0212067
6.52405e-05
0.0118572
0.000130896
0.0119502
0.000196874
0.0120439
0.000263073
0.0121383
0.00032939
0.0122334
0.000395717
0.0123293
0.000461942
0.0124259
0.00052795
0.0125232
0.000593624
0.0126213
0.000658841
0.0127202
0.000723478
0.0128198
0.000787405
0.0129201
0.000850495
0.0130213
0.000912613
0.0131234
0.000973628
0.0132262
0.0010334
0.0133299
0.0010918
0.0134345
0.00114867
0.0135401
0.00120389
0.0136466
0.00125732
0.0137541
0.0013088
0.0138626
0.0013582
0.0139722
0.00140538
0.014083
0.0014502
0.0141949
0.0014925
0.0143081
0.00153216
0.0144226
0.00156903
0.0145385
0.00160297
0.0146558
0.00163384
0.0147746
0.00166151
0.0148951
0.00168584
0.0150173
0.00170668
0.0151413
0.00172392
0.0152673
0.00173742
0.0153953
0.00174704
0.0155254
0.00175267
0.0156579
0.00175418
0.0157928
0.00175146
0.0159303
0.00174437
0.0160705
0.00173281
0.0162137
0.00171669
0.0163601
0.00169588
0.0165098
0.0016703
0.016663
0.00163985
0.0168201
0.00160447
0.0169812
0.00156407
0.0171466
0.00151859
0.0173166
0.00146799
0.0174916
0.00141223
0.0176719
0.00135129
0.0178578
0.00128516
0.0180497
0.00121387
0.018248
0.00113745
0.0184533
0.00105597
0.0186658
0.000969511
0.0188863
0.000878201
0.0191152
0.000782194
0.0193531
0.000681678
0.0196006
0.000576887
0.0198584
0.000468092
0.0201272
0.000355614
0.0204077
0.000239819
0.0207008
0.000121125
0.0210072
0.0213279
5.80579e-05
0.0117991
0.000116483
0.0118917
0.000175199
0.0119851
0.000234119
0.0120794
0.000293153
0.0121744
0.000352209
0.0122702
0.000411188
0.0123669
0.000469991
0.0124644
0.000528514
0.0125628
0.000586651
0.012662
0.000644293
0.0127621
0.000701328
0.0128631
0.000757642
0.012965
0.000813117
0.0130679
0.000867637
0.0131717
0.000921078
0.0132765
0.00097332
0.0133823
0.00102424
0.0134892
0.00107371
0.0135971
0.0011216
0.0137062
0.00116779
0.0138164
0.00121214
0.0139279
0.00125454
0.0140406
0.00129485
0.0141546
0.00133294
0.01427
0.00136868
0.0143868
0.00140195
0.0145052
0.00143261
0.0146251
0.00146054
0.0147467
0.0014856
0.0148701
0.00150769
0.0149952
0.00152666
0.0151224
0.0015424
0.0152515
0.00155478
0.0153829
0.00156369
0.0155165
0.00156902
0.0156526
0.00157063
0.0157912
0.00156843
0.0159325
0.00156232
0.0160766
0.00155217
0.0162239
0.00153791
0.0163744
0.00151943
0.0165283
0.00149664
0.0166858
0.00146948
0.0168472
0.00143786
0.0170128
0.00140172
0.0171827
0.00136101
0.0173574
0.00131568
0.017537
0.00126571
0.0177219
0.00121109
0.0179124
0.0011518
0.018109
0.00108788
0.018312
0.00101935
0.0185218
0.000946282
0.0187389
0.000868762
0.0189638
0.000786897
0.0191971
0.000700831
0.0194392
0.000610738
0.0196907
0.000516825
0.0199523
0.000419338
0.0202247
0.000318563
0.0205085
0.000214826
0.0208045
0.0001085
0.0211135
0.0214364
5.17032e-05
0.0117474
0.000103736
0.0118397
0.000156033
0.0119328
0.000208516
0.0120269
0.000261106
0.0121218
0.000313725
0.0122176
0.000366286
0.0123143
0.000418701
0.012412
0.000470881
0.0125106
0.000522732
0.0126102
0.000574157
0.0127107
0.00062506
0.0128122
0.000675339
0.0129147
0.000724891
0.0130183
0.000773609
0.013123
0.000821389
0.0132287
0.000868121
0.0133356
0.000913691
0.0134436
0.000957993
0.0135528
0.00100091
0.0136633
0.00104232
0.013775
0.00108213
0.013888
0.0011202
0.0140025
0.00115642
0.0141184
0.00119067
0.0142357
0.00122285
0.0143547
0.00125282
0.0144752
0.00128047
0.0145975
0.00130569
0.0147215
0.00132836
0.0148474
0.00134837
0.0149752
0.00136559
0.0151051
0.00137992
0.0152372
0.00139124
0.0153716
0.00139945
0.0155083
0.00140443
0.0156476
0.00140609
0.0157895
0.00140433
0.0159342
0.00139903
0.0160819
0.00139012
0.0162328
0.0013775
0.016387
0.00136108
0.0165447
0.00134079
0.0167061
0.00131655
0.0168715
0.0012883
0.017041
0.00125599
0.0172151
0.00121956
0.0173938
0.00117898
0.0175775
0.00113422
0.0177666
0.00108528
0.0179613
0.00103215
0.0181621
0.000974857
0.0183692
0.000913435
0.0185832
0.00084794
0.0188044
0.000778451
0.0190333
0.000705074
0.0192704
0.000627936
0.0195163
0.000547193
0.0197714
0.000463036
0.0200365
0.000375683
0.020312
0.000285392
0.0205988
0.000192453
0.0208975
9.71994e-05
0.0212088
0.0215336
4.60764e-05
0.0117013
9.24471e-05
0.0117933
0.000139054
0.0118862
0.000185832
0.0119801
0.000232713
0.0120749
0.000279623
0.0121707
0.000326489
0.0122675
0.000373234
0.0123652
0.00041978
0.012464
0.000466043
0.0125639
0.00051194
0.0126648
0.000557384
0.0127667
0.000602285
0.0128698
0.000646552
0.012974
0.000690093
0.0130794
0.000732811
0.013186
0.00077461
0.0132937
0.000815391
0.0134028
0.000855054
0.0135131
0.000893497
0.0136248
0.000930617
0.0137379
0.00096631
0.0138523
0.00100047
0.0139683
0.001033
0.0140858
0.00106378
0.0142049
0.00109271
0.0143257
0.00111969
0.0144482
0.0011446
0.0145725
0.00116734
0.0146987
0.00118781
0.0148269
0.00120589
0.0149572
0.0012215
0.0150895
0.00123451
0.0152242
0.00124483
0.0153612
0.00125236
0.0155008
0.001257
0.0156429
0.00125865
0.0157878
0.00125723
0.0159357
0.00125264
0.0160865
0.0012448
0.0162406
0.00123362
0.0163982
0.00121903
0.0165593
0.00120096
0.0167242
0.00117934
0.0168931
0.00115411
0.0170663
0.00112523
0.0172439
0.00109264
0.0174264
0.00105632
0.0176139
0.00101625
0.0178067
0.000972416
0.0180052
0.000924824
0.0182097
0.000873489
0.0184206
0.00081845
0.0186383
0.000759758
0.0188631
0.000697488
0.0190956
0.000631731
0.0193362
0.000562605
0.0195854
0.000490254
0.0198438
0.000414846
0.0201119
0.000336578
0.0203903
0.000255681
0.0206797
0.000172416
0.0209807
8.7079e-05
0.0212941
0.0216207
4.10847e-05
0.0116602
8.2433e-05
0.0117519
0.000123994
0.0118447
0.000165711
0.0119384
0.000207521
0.0120331
0.000249363
0.0121288
0.000291172
0.0122257
0.000332879
0.0123235
0.000374415
0.0124225
0.000415708
0.0125226
0.000456683
0.0126238
0.000497263
0.0127262
0.00053737
0.0128297
0.000576923
0.0129345
0.000615839
0.0130405
0.000654033
0.0131478
0.000691419
0.0132564
0.000727909
0.0133663
0.000763413
0.0134776
0.00079784
0.0135904
0.000831098
0.0137046
0.000863094
0.0138203
0.000893733
0.0139377
0.00092292
0.0140566
0.00095056
0.0141773
0.000976556
0.0142997
0.00100081
0.014424
0.00102323
0.0145501
0.00104371
0.0146783
0.00106217
0.0148085
0.0010785
0.0149408
0.0010926
0.0150754
0.0011044
0.0152124
0.00111378
0.0153519
0.00112066
0.0154939
0.00112496
0.0156386
0.00112657
0.0157862
0.00112543
0.0159368
0.00112144
0.0160905
0.00111454
0.0162475
0.00110463
0.0164081
0.00109167
0.0165722
0.00107557
0.0167403
0.00105628
0.0169124
0.00103375
0.0170888
0.00100793
0.0172698
0.000978794
0.0174555
0.000946298
0.0176464
0.000910431
0.0178426
0.000871184
0.0180444
0.000828561
0.0182523
0.00078258
0.0184666
0.000733275
0.0186876
0.000680693
0.0189157
0.000624902
0.0191514
0.000565984
0.0193951
0.000504049
0.0196474
0.000439223
0.0199086
0.000371661
0.0201795
0.000301538
0.0204604
0.000229061
0.0207522
0.000154464
0.0210553
7.80119e-05
0.0213706
0.0216987
3.66497e-05
0.0116236
7.35374e-05
0.0117151
0.000110616
0.0118076
0.000147834
0.0119011
0.00018514
0.0119958
0.000222477
0.0120915
0.000259788
0.0121883
0.000297013
0.0122863
0.000334093
0.0123854
0.00037096
0.0124857
0.000407551
0.0125872
0.000443797
0.0126899
0.00047963
0.0127939
0.000514975
0.0128991
0.000549761
0.0130057
0.000583911
0.0131136
0.000617349
0.0132229
0.000649996
0.0133336
0.000681773
0.0134458
0.000712598
0.0135595
0.000742387
0.0136748
0.000771059
0.0137917
0.000798527
0.0139102
0.000824707
0.0140305
0.000849511
0.0141525
0.000872854
0.0142764
0.000894648
0.0144022
0.000914804
0.01453
0.000933236
0.0146598
0.000949857
0.0147918
0.000964579
0.0149261
0.000977317
0.0150627
0.000987984
0.0152017
0.000996496
0.0153433
0.00100277
0.0154876
0.00100673
0.0156347
0.00100828
0.0157847
0.00100736
0.0159377
0.00100389
0.016094
0.000997802
0.0162536
0.000989023
0.0164168
0.000977491
0.0165838
0.00096315
0.0167546
0.000945943
0.0169296
0.000925825
0.0171089
0.000902756
0.0172928
0.000876699
0.0174816
0.00084763
0.0176754
0.000815532
0.0178747
0.000780399
0.0180796
0.000742237
0.0182905
0.00070106
0.0185077
0.0006569
0.0187317
0.000609801
0.0189628
0.000559823
0.0192014
0.000507044
0.0194479
0.000451559
0.0197029
0.000393483
0.0199667
0.000332955
0.02024
0.000270134
0.0205233
0.000205205
0.0208171
0.000138377
0.0211222
6.98868e-05
0.0214391
0.0217686
3.27093e-05
0.0115909
6.56295e-05
0.0116821
9.87215e-05
0.0117745
0.00013194
0.0118679
0.000165238
0.0119625
0.000198567
0.0120582
0.000231875
0.012155
0.000265112
0.0122531
0.00029822
0.0123523
0.000331146
0.0124528
0.00036383
0.0125545
0.000396212
0.0126575
0.000428229
0.0127619
0.000459818
0.0128675
0.000490915
0.0129746
0.000521451
0.0130831
0.000551358
0.013193
0.000580566
0.0133044
0.000609004
0.0134174
0.000636599
0.0135319
0.000663276
0.0136481
0.000688961
0.013766
0.000713579
0.0138856
0.00073705
0.014007
0.0007593
0.0141302
0.000780248
0.0142554
0.000799816
0.0143826
0.000817926
0.0145118
0.000834499
0.0146432
0.000849454
0.0147769
0.000862714
0.0149128
0.000874201
0.0150512
0.000883837
0.0151921
0.000891545
0.0153356
0.00089725
0.0154819
0.000900878
0.015631
0.000902358
0.0157832
0.000901618
0.0159384
0.000898593
0.016097
0.000893216
0.016259
0.000885428
0.0164246
0.000875171
0.016594
0.000862391
0.0167674
0.00084704
0.0169449
0.000829076
0.0171269
0.000808459
0.0173134
0.000785163
0.0175049
0.000759162
0.0177014
0.000730443
0.0179034
0.000699
0.018111
0.000664837
0.0183246
0.000627969
0.0185446
0.000588425
0.0187713
0.000546244
0.019005
0.000501482
0.0192461
0.000454206
0.0194952
0.000404506
0.0197526
0.000352483
0.0200187