/*--------------------------------*- C++ -*----------------------------------*\
  =========                 |
  \\      /  F ield         | OpenFOAM: The Open Source CFD Toolbox
   \\    /   O peration     | Website:  https://openfoam.org
    \\  /    A nd           | Version:  11
     \\/     M anipulation  |
\*---------------------------------------------------------------------------*/
FoamFile
{
    format      ascii;
    class       surfaceScalarField;
    location    "0";
    object      phi;
}
// * * * * * * * * * * * * * * * * * * * * * * * * * * * * * * * * * * * * * //

dimensions      [0 3 -1 0 0 0 0];

internalField   nonuniform List<scalar> 
8064
(
0.000787885
0.0148371
0.00148565
0.0149273
0.00211128
0.0149994
0.00267786
0.0150585
0.00319503
0.0151079
0.00367005
0.01515
0.00410845
0.0151866
0.00451458
0.0152189
0.00489185
0.0152478
0.00524302
0.0152739
0.00557033
0.0152977
0.00587563
0.0153197
0.00616048
0.0153402
0.00642618
0.0153593
0.00667384
0.0153774
0.0069044
0.0153945
0.00711869
0.0154107
0.0073174
0.0154263
0.00750114
0.0154413
0.00767045
0.0154557
0.00782578
0.0154697
0.00796754
0.0154833
0.00809607
0.0154965
0.00821166
0.0155094
0.00831457
0.0155221
0.00840501
0.0155346
0.00848316
0.0155469
0.00854916
0.015559
0.00860311
0.0155711
0.0086451
0.015583
0.00867518
0.015595
0.00869336
0.0156069
0.00869963
0.0156188
0.00869395
0.0156307
0.00867626
0.0156427
0.00864646
0.0156548
0.0086044
0.0156671
0.00854994
0.0156795
0.00848287
0.0156921
0.00840295
0.015705
0.0083099
0.0157181
0.00820341
0.0157315
0.0080831
0.0157454
0.00794854
0.0157596
0.00779924
0.0157743
0.00763464
0.0157896
0.0074541
0.0158056
0.00725687
0.0158223
0.00704211
0.0158398
0.00680884
0.0158583
0.0065559
0.015878
0.00628197
0.015899
0.00598546
0.0159216
0.00566448
0.015946
0.00531676
0.0159728
0.0049395
0.0160023
0.00452921
0.0160353
0.00408139
0.0160729
0.00359015
0.0161163
0.00304737
0.0161678
0.00244143
0.016231
0.00175461
0.0163119
0.000957956
0.0164217
0.016583
0.000524799
0.0143124
0.00103907
0.0144131
0.00153485
0.0145037
0.00200824
0.0145852
0.00245768
0.0146585
0.00288293
0.0147249
0.00328448
0.0147852
0.00366316
0.0148403
0.00401999
0.014891
0.00435602
0.0149379
0.00467226
0.0149816
0.00496967
0.0150224
0.00524915
0.0150608
0.00551151
0.0150971
0.00575747
0.0151315
0.0059877
0.0151643
0.00620279
0.0151958
0.00640325
0.015226
0.00658957
0.0152551
0.00676214
0.0152833
0.00692134
0.0153106
0.00706749
0.0153372
0.00720088
0.0153632
0.00732173
0.0153887
0.00743027
0.0154137
0.00752667
0.0154383
0.00761107
0.0154626
0.00768358
0.0154866
0.00774429
0.0155105
0.00779327
0.0155342
0.00783054
0.0155578
0.0078561
0.0155814
0.00786994
0.015605
0.00787201
0.0156287
0.00786223
0.0156526
0.0078405
0.0156767
0.00780668
0.015701
0.0077606
0.0157257
0.00770207
0.0157507
0.00763085
0.0157763
0.00754667
0.0158024
0.0074492
0.0158291
0.00733809
0.0158565
0.00721293
0.0158849
0.00707323
0.0159141
0.00691845
0.0159445
0.00674799
0.0159761
0.00656113
0.0160092
0.00635707
0.0160439
0.00613489
0.0160806
0.00589352
0.0161194
0.00563172
0.0161609
0.00534807
0.0162053
0.00504088
0.0162533
0.00470815
0.0163056
0.00434751
0.016363
0.00395612
0.0164268
0.00353054
0.0164985
0.00306661
0.0165803
0.00255936
0.0166752
0.00200303
0.0167874
0.00139175
0.0169233
0.000721919
0.0170917
0.017305
0.000404889
0.0139075
0.000808327
0.0140097
0.00120629
0.0141058
0.00159559
0.0141959
0.00197386
0.0142803
0.00233943
0.0143593
0.00269122
0.0144334
0.00302856
0.014503
0.00335113
0.0145685
0.00365883
0.0146303
0.00395169
0.0146888
0.00422989
0.0147442
0.00449366
0.0147971
0.00474326
0.0148475
0.00497897
0.0148958
0.00520109
0.0149423
0.00540991
0.014987
0.00560569
0.0150302
0.00578871
0.0150721
0.00595918
0.0151128
0.00611735
0.0151525
0.0062634
0.0151912
0.00639751
0.0152292
0.00651984
0.0152664
0.00663052
0.015303
0.00672966
0.0153392
0.00681734
0.0153749
0.00689365
0.0154104
0.00695861
0.0154455
0.00701226
0.0154806
0.00705461
0.0155155
0.00708562
0.0155504
0.00710526
0.0155854
0.00711346
0.0156206
0.00711014
0.015656
0.00709517
0.0156917
0.00706842
0.0157278
0.00702971
0.0157644
0.00697885
0.0158016
0.00691561
0.0158396
0.00683972
0.0158783
0.00675087
0.015918
0.00664872
0.0159587
0.00653287
0.0160008
0.00640289
0.0160442
0.00625826
0.0160892
0.00609843
0.016136
0.00592274
0.016185
0.00573048
0.0162363
0.00552083
0.0162903
0.00529285
0.0163475
0.00504549
0.0164083
0.00477756
0.0164733
0.00448768
0.0165432
0.0041743
0.016619
0.00383566
0.0167017
0.00346979
0.0167928
0.00307453
0.0168939
0.00264756
0.0170074
0.00218667
0.0171362
0.0016901
0.0172841
0.00115748
0.017456
0.000591414
0.0176578
0.0178964
0.000329937
0.0135777
0.000660277
0.0136795
0.000988871
0.0137773
0.00131377
0.0138711
0.00163325
0.0139609
0.00194586
0.0140468
0.00225042
0.0141289
0.00254597
0.0142075
0.00283179
0.0142827
0.00310732
0.0143548
0.00337217
0.014424
0.00362606
0.0144904
0.00386882
0.0145544
0.00410035
0.0146161
0.0043206
0.0146757
0.00452957
0.0147334
0.00472728
0.0147893
0.00491379
0.0148438
0.00508915
0.0148968
0.00525344
0.0149486
0.00540672
0.0149992
0.00554905
0.0150489
0.00568052
0.0150977
0.00580116
0.0151458
0.00591102
0.0151932
0.00601015
0.0152401
0.00609856
0.0152866
0.00617626
0.0153327
0.00624326
0.0153786
0.00629953
0.0154243
0.00634504
0.01547
0.00637973
0.0155158
0.00640355
0.0155616
0.0064164
0.0156078
0.00641818
0.0156542
0.00640876
0.0157012
0.00638798
0.0157486
0.00635569
0.0157968
0.00631167
0.0158457
0.0062557
0.0158956
0.00618753
0.0159465
0.00610685
0.0159987
0.00601337
0.0160523
0.0059067
0.0161075
0.00578645
0.0161645
0.00565215
0.0162235
0.00550332
0.0162849
0.00533938
0.0163489
0.00515972
0.016416
0.00496364
0.0164864
0.00475037
0.0165608
0.00451907
0.0166396
0.00426881
0.0167236
0.00399855
0.0168135
0.00370719
0.0169104
0.00339357
0.0170154
0.00305648
0.0171299
0.00269476
0.0172556
0.00230739
0.0173948
0.00189375
0.0175498
0.0014539
0.017724
0.000989135
0.0179208
0.000502628
0.0181444
0.0183991
0.000276509
0.0133012
0.000553864
0.0134021
0.000830826
0.0135003
0.00110614
0.0135957
0.00137863
0.0136884
0.00164721
0.0137782
0.00191089
0.0138652
0.00216883
0.0139496
0.00242027
0.0140313
0.00266459
0.0141105
0.00290124
0.0141873
0.0031298
0.0142618
0.00334989
0.0143343
0.00356123
0.0144047
0.00376359
0.0144733
0.00395677
0.0145401
0.00414064
0.0146054
0.00431508
0.0146693
0.00448
0.0147319
0.00463534
0.0147932
0.00478104
0.0148535
0.00491705
0.0149129
0.00504335
0.0149714
0.00515989
0.0150293
0.00526663
0.0150865
0.00536355
0.0151432
0.0054506
0.0151995
0.00552773
0.0152556
0.0055949
0.0153114
0.00565204
0.0153672
0.00569908
0.015423
0.00573593
0.0154789
0.00576251
0.0155351
0.00577869
0.0155916
0.00578436
0.0156486
0.00577937
0.0157061
0.00576358
0.0157644
0.00573679
0.0158236
0.00569881
0.0158837
0.00564943
0.015945
0.00558839
0.0160076
0.00551544
0.0160717
0.00543026
0.0161375
0.00533253
0.0162052
0.00522189
0.0162751
0.00509795
0.0163475
0.00496027
0.0164226
0.00480837
0.0165008
0.00464174
0.0165826
0.00445982
0.0166684
0.004262
0.0167586
0.00404763
0.016854
0.00381603
0.0169552
0.00356648
0.0170631
0.00329826
0.0171787
0.00301067
0.017303
0.00270304
0.0174375
0.00237489
0.0175838
0.00202595
0.0177437
0.00165635
0.0179195
0.00126683
0.0181135
0.000858953
0.0183287
0.000435397
0.018568
0.0188345
0.000235635
0.0130656
0.000472275
0.0131655
0.000709066
0.0132635
0.000945159
0.0133597
0.00117972
0.0134538
0.00141195
0.013546
0.00164109
0.0136361
0.00186644
0.0137242
0.00208734
0.0138104
0.00230321
0.0138946
0.00251352
0.013977
0.0027178
0.0140576
0.00291564
0.0141364
0.00310667
0.0142137
0.00329058
0.0142894
0.00346709
0.0143637
0.00363597
0.0144366
0.00379698
0.0145083
0.00394997
0.0145789
0.00409477
0.0146484
0.00423123
0.0147171
0.00435923
0.0147849
0.00447866
0.014852
0.00458941
0.0149185
0.00469137
0.0149845
0.00478445
0.0150501
0.00486856
0.0151154
0.0049436
0.0151805
0.00500947
0.0152456
0.00506607
0.0153106
0.0051133
0.0153758
0.00515104
0.0154412
0.00517917
0.015507
0.00519756
0.0155732
0.00520607
0.0156401
0.00520455
0.0157077
0.00519283
0.0157761
0.00517073
0.0158457
0.00513805
0.0159164
0.00509459
0.0159884
0.00504011
0.016062
0.00497437
0.0161374
0.00489708
0.0162147
0.00480797
0.0162943
0.0047067
0.0163764
0.00459295
0.0164612
0.00446634
0.0165492
0.00432648
0.0166407
0.00417296
0.0167361
0.00400534
0.016836
0.00382316
0.0169408
0.00362593
0.0170512
0.0034132
0.017168
0.00318448
0.0172918
0.00293933
0.0174238
0.00267738
0.017565
0.00239836
0.0177166
0.00210213
0.01788
0.00178883
0.018057
0.00145892
0.0182494
0.00111329
0.0184592
0.000753416
0.0186886
0.000381397
0.01894
0.0192159
0.000203119
0.0128624
0.000407189
0.0129613
0.000611662
0.013059
0.000815919
0.0131553
0.00101935
0.0132503
0.00122134
0.0133439
0.00142132
0.0134361
0.0016187
0.0135268
0.00181296
0.0136161
0.00200358
0.013704
0.00219009
0.0137904
0.00237205
0.0138756
0.00254906
0.0139594
0.00272074
0.0140419
0.00288675
0.0141233
0.00304678
0.0142036
0.00320056
0.0142828
0.00334782
0.014361
0.00348834
0.0144383
0.00362189
0.0145148
0.00374828
0.0145906
0.00386734
0.0146658
0.0039789
0.0147404
0.0040828
0.0148146
0.00417889
0.0148884
0.00426703
0.0149619
0.00434708
0.0150353
0.00441892
0.0151087
0.0044824
0.015182
0.0045374
0.0152556
0.00458377
0.0153294
0.00462139
0.0154035
0.00465011
0.0154782
0.00466978
0.0155535
0.00468025
0.0156296
0.00468135
0.0157065
0.00467292
0.0157845
0.00465477
0.0158638
0.00462672
0.0159444
0.00458855
0.0160266
0.00454005
0.0161105
0.004481
0.0161964
0.00441114
0.0162846
0.00433022
0.0163752
0.00423796
0.0164686
0.00413407
0.0165651
0.00401826
0.016665
0.0038902
0.0167687
0.00374956
0.0168767
0.00359602
0.0169895
0.00342922
0.0171076
0.00324884
0.0172316
0.00305456
0.0173622
0.00284609
0.0175003
0.00262319
0.0176467
0.00238571
0.0178024
0.00213359
0.0179687
0.00186692
0.0181467
0.00158601
0.0183379
0.00129143
0.018544
0.000984073
0.0187665
0.000665191
0.0190075
0.000336472
0.0192687
0.0195523
0.00017645
0.012686
0.000353832
0.0127839
0.000531704
0.0128811
0.00070961
0.0129774
0.000887081
0.0130729
0.00106365
0.0131673
0.00123886
0.0132609
0.00141225
0.0133534
0.00158339
0.013445
0.00175183
0.0135355
0.00191717
0.0136251
0.00207902
0.0137137
0.002237
0.0138014
0.00239077
0.0138882
0.00253999
0.0139741
0.00268436
0.0140592
0.00282358
0.0141435
0.00295739
0.0142272
0.00308552
0.0143102
0.00320775
0.0143926
0.00332385
0.0144745
0.00343361
0.014556
0.00353683
0.0146372
0.00363333
0.0147181
0.00372293
0.0147988
0.00380546
0.0148794
0.00388075
0.01496
0.00394864
0.0150407
0.00400897
0.0151217
0.00406159
0.0152029
0.00410635
0.0152846
0.00414308
0.0153668
0.00417163
0.0154496
0.00419184
0.0155333
0.00420354
0.0156178
0.00420657
0.0157035
0.00420076
0.0157903
0.00418591
0.0158786
0.00416186
0.0159684
0.00412839
0.01606
0.00408532
0.0161536
0.00403242
0.0162493
0.00396948
0.0163475
0.00389628
0.0164484
0.00381256
0.0165523
0.0037181
0.0166595
0.00361264
0.0167704
0.00349593
0.0168854
0.00336771
0.0170049
0.00322773
0.0171295
0.00307575
0.0172595
0.00291154
0.0173958
0.0027349
0.0175388
0.00254568
0.0176895
0.00234377
0.0178486
0.00212915
0.018017
0.00190189
0.0181959
0.0016622
0.0183863
0.00141046
0.0185896
0.00114724
0.0188071
0.000873369
0.0190404
0.000589917
0.0192909
0.000298245
0.0195604
0.0198505
0.000154219
0.0125317
0.000309262
0.0126288
0.000464835
0.0127255
0.000620577
0.0128216
0.000776119
0.0129172
0.000931094
0.0130123
0.00108513
0.0131068
0.00123786
0.0132006
0.00138891
0.0132938
0.00153793
0.0133864
0.00168456
0.0134784
0.00182846
0.0135697
0.00196931
0.0136605
0.00210678
0.0137506
0.00224056
0.0138402
0.00237037
0.0139293
0.00249592
0.0140179
0.00261695
0.0141061
0.0027332
0.0141939
0.00284443
0.0142813
0.0029504
0.0143685
0.00305091
0.0144555
0.00314572
0.0145423
0.00323466
0.0146291
0.00331751
0.0147159
0.00339409
0.0148028
0.00346423
0.0148898
0.00352773
0.0149772
0.00358444
0.0150649
0.00363418
0.0151531
0.00367677
0.0152419
0.00371207
0.0153314
0.00373989
0.0154218
0.00376006
0.015513
0.00377243
0.0156054
0.00377682
0.015699
0.00377305
0.0157941
0.00376096
0.0158906
0.00374035
0.015989
0.00371104
0.0160893
0.00367285
0.0161917
0.00362558
0.0162965
0.00356904
0.016404
0.00350302
0.0165144
0.00342732
0.0166279
0.00334174
0.0167451
0.00324608
0.0168661
0.00314012
0.0169913
0.00302368
0.0171213
0.00289656
0.0172565
0.00275861
0.0173974
0.00260967
0.0175446
0.00244963
0.0176988
0.00227841
0.0178606
0.002096
0.0180309
0.00190246
0.0182105
0.00169794
0.0184004
0.00148269
0.0186015
0.00125711
0.0188152
0.00102175
0.0190425
0.000777331
0.0192847
0.000524782
0.0195434
0.000265224
0.0198199
0.0201157
0.000135361
0.0123963
0.000271497
0.0124926
0.000408149
0.0125888
0.000545034
0.0126847
0.000681859
0.0127804
0.000818325
0.0128758
0.000954132
0.0129709
0.00108898
0.0130657
0.00122255
0.0131602
0.00135456
0.0132544
0.00148469
0.0133482
0.00161266
0.0134417
0.00173818
0.0135349
0.00186095
0.0136278
0.0019807
0.0137205
0.00209717
0.0138128
0.00221009
0.013905
0.00231921
0.0139969
0.00242429
0.0140888
0.00252508
0.0141805
0.00262136
0.0142722
0.00271292
0.0143639
0.00279953
0.0144557
0.00288099
0.0145476
0.0029571
0.0146397
0.00302766
0.0147322
0.0030925
0.014825
0.00315142
0.0149182
0.00320424
0.0150121
0.00325079
0.0151065
0.00329089
0.0152018
0.00332437
0.0152979
0.00335106
0.015395
0.00337079
0.0154933
0.00338338
0.0155928
0.00338867
0.0156937
0.00338648
0.0157962
0.00337665
0.0159004
0.003359
0.0160066
0.00333335
0.0161149
0.00329954
0.0162255
0.00325738
0.0163386
0.0032067
0.0164546
0.00314732
0.0165737
0.00307907
0.0166962
0.00300177
0.0168223
0.00291526
0.0169525
0.00281938
0.0170872
0.00271397
0.0172267
0.0025989
0.0173715
0.00247406
0.0175222
0.00233936
0.0176793
0.00219473
0.0178434
0.00204017
0.0180152
0.00187571
0.0181953
0.00170145
0.0183847
0.00151759
0.0185842
0.00132439
0.0187947
0.00112224
0.0190173
0.000911646
0.019253
0.000693254
0.0195031
0.000467856
0.0197687
0.000236398
0.0200513
0.0203521
0.000119245
0.012277
0.000239163
0.0123726
0.000359583
0.0124683
0.000480267
0.012564
0.000600975
0.0126596
0.000721464
0.0127553
0.000841482
0.0128508
0.000960777
0.0129464
0.00107909
0.0130418
0.00119618
0.0131372
0.00131177
0.0132326
0.00142562
0.0133278
0.00153746
0.013423
0.00164706
0.0135182
0.00175416
0.0136133
0.00185851
0.0137084
0.00195989
0.0138035
0.00205805
0.0138987
0.00215277
0.013994
0.00224383
0.0140894
0.002331
0.0141849
0.00241407
0.0142808
0.00249284
0.0143768
0.0025671
0.0144733
0.00263665
0.0145701
0.00270131
0.0146674
0.00276089
0.0147653
0.00281519
0.0148639
0.00286404
0.0149632
0.00290727
0.0150633
0.00294468
0.0151643
0.00297612
0.0152664
0.00300141
0.0153697
0.00302039
0.0154743
0.00303287
0.0155802
0.00303871
0.0156878
0.00303772
0.0157971
0.00302975
0.0159084
0.00301463
0.0160217
0.00299219
0.0161372
0.00296229
0.0162553
0.00292474
0.0163761
0.0028794
0.0164999
0.00282611
0.0166269
0.00276472
0.0167575
0.00269507
0.0168919
0.00261705
0.0170305
0.0025305
0.0171737
0.00243533
0.0173218
0.00233143
0.0174754
0.00221873
0.0176349
0.00209717
0.0178008
0.00196674
0.0179738
0.00182746
0.0181544
0.00167941
0.0183433
0.00152269
0.0185414
0.00135753
0.0187493
0.00118418
0.018968
0.00100301
0.0191984
0.000814482
0.0194415
0.000619169
0.0196983
0.000417754
0.0199701
0.000211046
0.0202579
0.0205631
0.000105313
0.0121717
0.000211249
0.0122667
0.000317647
0.0123619
0.000424317
0.0124573
0.000531059
0.0125528
0.00063767
0.0126486
0.000743942
0.0127445
0.000849661
0.0128406
0.000954613
0.0129369
0.00105858
0.0130332
0.00116134
0.0131298
0.00126267
0.0132265
0.00136236
0.0133233
0.00146017
0.0134203
0.0015559
0.0135175
0.00164932
0.0136149
0.00174022
0.0137126
0.00182839
0.0138105
0.0019136
0.0139087
0.00199567
0.0140073
0.00207438
0.0141062
0.00214953
0.0142056
0.00222092
0.0143054
0.00228837
0.0144058
0.00235168
0.0145068
0.00241066
0.0146084
0.00246513
0.0147108
0.00251492
0.014814
0.00255983
0.0149182
0.00259971
0.0150233
0.00263437
0.0151296
0.00266366
0.0152371
0.00268739
0.0153459
0.00270541
0.0154562
0.00271755
0.0155681
0.00272365
0.0156817
0.00272356
0.0157972
0.00271711
0.0159148
0.00270415
0.0160346
0.00268452
0.0161568
0.00265809
0.0162817
0.00262469
0.0164095
0.00258418
0.0165404
0.00253644
0.0166746
0.00248132
0.0168126
0.0024187
0.0169545
0.00234847
0.0171007
0.00227053
0.0172516
0.00218477
0.0174075
0.00209115
0.017569
0.0019896
0.0177364
0.0018801
0.0179103
0.00176266
0.0180912
0.00163732
0.0182797
0.00150418
0.0184764
0.00136336
0.0186821
0.00121507
0.0188975
0.00105957
0.0191234
0.000897194
0.0193607
0.000728359
0.0196103
0.000553571
0.0198731
0.000373429
0.0201502
0.000188631
0.0204427
0.0207517
9.32232e-05
0.0120784
0.000186992
0.0121728
0.000281193
0.0122676
0.000375664
0.0123627
0.000470235
0.0124582
0.000564735
0.012554
0.000658986
0.0126502
0.00075281
0.0127467
0.000846021
0.0128436
0.000938435
0.0129408
0.00102986
0.0130383
0.0011201
0.0131362
0.00120897
0.0132344
0.00129628
0.013333
0.00138182
0.0134319
0.0014654
0.0135313
0.00154684
0.0136311
0.00162594
0.0137314
0.0017025
0.0138321
0.00177633
0.0139334
0.00184726
0.0140352
0.00191508
0.0141377
0.00197962
0.0142408
0.0020407
0.0143446
0.00209813
0.0144493
0.00215174
0.0145547
0.00220136
0.0146611
0.00224681
0.0147685
0.00228791
0.014877
0.00232451
0.0149867
0.00235644
0.0150976
0.00238353
0.0152099
0.00240563
0.0153238
0.00242257
0.0154392
0.0024342
0.0155564
0.00244037
0.0156755
0.00244093
0.0157966
0.00243572
0.0159199
0.00242459
0.0160457
0.00240742
0.016174
0.00238406
0.016305
0.00235437
0.0164391
0.00231823
0.0165765
0.00227551
0.0167173
0.0022261
0.0168619
0.00216988
0.0170106
0.00210678
0.0171637
0.00203669
0.0173216
0.00195956
0.0174846
0.00187532
0.0176532
0.00178396
0.0178277
0.00168546
0.0180087
0.00157984
0.0181967
0.00146718
0.0183923
0.00134755
0.018596
0.0012211
0.0188086
0.00108802
0.0190306
0.000948556
0.0192629
0.000803018
0.0195062
0.000651779
0.0197614
0.000495286
0.0200295
0.000334068
0.0203113
0.000168733
0.020608
0.0209204
8.26575e-05
0.0119958
0.000165812
0.0120896
0.000249361
0.012184
0.000333165
0.0122789
0.000417082
0.0123743
0.000500968
0.0124701
0.000584671
0.0125665
0.000668037
0.0126633
0.000750909
0.0127607
0.000833125
0.0128585
0.000914519
0.0129569
0.000994929
0.0130557
0.00107418
0.0131551
0.00115211
0.013255
0.00122854
0.0133554
0.0013033
0.0134565
0.00137621
0.0135581
0.00144711
0.0136604
0.00151582
0.0137633
0.00158217
0.013867
0.00164598
0.0139714
0.00170709
0.0140765
0.00176531
0.0141825
0.0018205
0.0142894
0.00187247
0.0143973
0.00192106
0.0145061
0.0019661
0.0146161
0.00200744
0.0147272
0.00204492
0.0148395
0.00207837
0.0149532
0.00210764
0.0150683
0.00213257
0.015185
0.00215301
0.0153033
0.00216881
0.0154233
0.00217983
0.0155453
0.00218591
0.0156693
0.00218692
0.0157955
0.00218272
0.0159241
0.00217316
0.0160552
0.00215813
0.0161889
0.00213748
0.0163256
0.0021111
0.0164655
0.00207888
0.0166087
0.0020407
0.0167555
0.00199645
0.0169061
0.00194606
0.017061
0.00188942
0.0172203
0.00182649
0.0173845
0.00175719
0.0175539
0.0016815
0.0177288
0.0015994
0.0179098
0.00151089
0.0180972
0.00141601
0.0182916
0.00131481
0.0184935
0.0012074
0.0187034
0.00109392
0.018922
0.00097453
0.0191499
0.00084947
0.0193879
0.000719021
0.0196366
0.000583519
0.0198969
0.000443364
0.0201696
0.000299019
0.0204556
0.000151021
0.0207559
0.0210714
7.33947e-05
0.0119223
0.000147235
0.0120157
0.000221435
0.0121097
0.000295876
0.0122044
0.000370437
0.0122996
0.00044499
0.0123955
0.000519408
0.012492
0.000593559
0.0125891
0.000667304
0.0126869
0.000740504
0.0127853
0.000813018
0.0128843
0.000884699
0.012984
0.000955399
0.0130843
0.00102497
0.0131854
0.00109326
0.0132871
0.00116011
0.0133896
0.00122537
0.0134928
0.00128889
0.0135969
0.0013505
0.0137017
0.00141006
0.0138074
0.0014674
0.013914
0.00152237
0.0140215
0.00157482
0.01413
0.00162459
0.0142396
0.00167151
0.0143503
0.00171545
0.0144621
0.00175625
0.0145752
0.00179375
0.0146896
0.00182781
0.0148054
0.00185827
0.0149227
0.001885
0.0150415
0.00190784
0.0151621
0.00192665
0.0152844
0.00194129
0.0154087
0.00195163
0.0155349
0.00195752
0.0156634
0.00195884
0.0157942
0.00195545
0.0159274
0.00194723
0.0160633
0.00193405
0.0162021
0.00191581
0.0163438
0.00189238
0.0164889
0.00186366
0.0166373
0.00182956
0.0167895
0.00178998
0.0169457
0.00174484
0.0171061
0.00169407
0.0172711
0.00163761
0.0174409
0.00157543
0.017616
0.00150749
0.0177967
0.00143378
0.0179834
0.00135432
0.0181766
0.00126914
0.0183767
0.00117831
0.0185842
0.00108192
0.0187997
0.000980105
0.0190238
0.000873031
0.019257
0.000760907
0.0195
0.000643986
0.0197535
0.000522572
0.0200183
0.000397022
0.0202951
0.000267748
0.0205849
0.00013522
0.0208884
0.0212066
6.52486e-05
0.011857
0.000130897
0.01195
0.000196871
0.0120437
0.000263068
0.0121381
0.000329384
0.0122333
0.00039571
0.0123292
0.000461934
0.0124258
0.000527942
0.0125231
0.000593615
0.0126212
0.000658831
0.01272
0.000723467
0.0128196
0.000787394
0.01292
0.000850483
0.0130212
0.000912601
0.0131232
0.000973615
0.0132261
0.00103339
0.0133298
0.00109178
0.0134344
0.00114866
0.0135399
0.00120388
0.0136464
0.00125731
0.0137539
0.00130879
0.0138625
0.00135819
0.0139721
0.00140537
0.0140828
0.00145018
0.0141948
0.00149249
0.0143079
0.00153215
0.0144224
0.00156902
0.0145383
0.00160296
0.0146556
0.00163383
0.0147745
0.0016615
0.014895
0.00168583
0.0150172
0.00170668
0.0151412
0.00172391
0.0152671
0.00173741
0.0153951
0.00174704
0.0155253
0.00175267
0.0156577
0.00175418
0.0157926
0.00175145
0.0159301
0.00174436
0.0160704
0.00173281
0.0162136
0.00171668
0.0163599
0.00169587
0.0165096
0.00167029
0.0166629
0.00163984
0.0168199
0.00160446
0.016981
0.00156406
0.0171465
0.00151858
0.0173165
0.00146798
0.0174915
0.00141222
0.0176717
0.00135128
0.0178576
0.00128515
0.0180495
0.00121386
0.0182479
0.00113744
0.0184531
0.00105596
0.0186657
0.000969502
0.0188862
0.000878194
0.019115
0.000782187
0.0193529
0.000681673
0.0196004
0.000576882
0.0198582
0.000468086
0.020127
0.000355605
0.0204075
0.000239805
0.0207006
0.000121104
0.021007
0.0213277
5.80542e-05
0.011799
0.000116478
0.0118916
0.000175194
0.011985
0.000234115
0.0120792
0.00029315
0.0121742
0.000352205
0.0122701
0.000411184
0.0123668
0.000469988
0.0124643
0.000528511
0.0125626
0.000586647
0.0126619
0.00064429
0.012762
0.000701324
0.012863
0.000757638
0.0129649
0.000813113
0.0130677
0.000867633
0.0131715
0.000921074
0.0132763
0.000973316
0.0133821
0.00102423
0.013489
0.0010737
0.0135969
0.00112159
0.013706
0.00116778
0.0138162
0.00121214
0.0139277
0.00125454
0.0140404
0.00129485
0.0141544
0.00133294
0.0142698
0.00136868
0.0143867
0.00140195
0.014505
0.00143261
0.014625
0.00146054
0.0147465
0.0014856
0.0148699
0.00150769
0.0149951
0.00152666
0.0151222
0.0015424
0.0152514
0.00155478
0.0153827
0.00156369
0.0155163
0.00156902
0.0156524
0.00157063
0.015791
0.00156843
0.0159323
0.00156232
0.0160765
0.00155217
0.0162237
0.00153791
0.0163742
0.00151942
0.0165281
0.00149664
0.0166856
0.00146947
0.0168471
0.00143785
0.0170126
0.00140171
0.0171826
0.001361
0.0173572
0.00131568
0.0175368
0.00126571
0.0177217
0.00121108
0.0179122
0.00115179
0.0181088
0.00108787
0.0183118
0.00101934
0.0185216
0.000946275
0.0187387
0.000868755
0.0189636
0.000786891
0.0191969
0.000700826
0.019439
0.000610732
0.0196905
0.00051682
0.0199521
0.000419331
0.0202245
0.000318553
0.0205083
0.000214812
0.0208043
0.00010848
0.0211133
0.0214362
5.17065e-05
0.0117472
0.000103736
0.0118395
0.000156032
0.0119327
0.000208515
0.0120267
0.000261105
0.0121216
0.000313724
0.0122174
0.000366285
0.0123142
0.0004187
0.0124118
0.000470879
0.0125104
0.000522731
0.01261
0.000574156
0.0127105
0.000625059
0.012812
0.000675338
0.0129146
0.000724891
0.0130181
0.000773609
0.0131228
0.00082139
0.0132285
0.000868122
0.0133354
0.000913693
0.0134434
0.000957994
0.0135526
0.00100091
0.0136631
0.00104233
0.0137748
0.00108213
0.0138879
0.0011202
0.0140023
0.00115642
0.0141182
0.00119068
0.0142355
0.00122285
0.0143545
0.00125282
0.014475
0.00128048
0.0145973
0.0013057
0.0147213
0.00132837
0.0148472
0.00134837
0.014975
0.00136559
0.015105
0.00137992
0.015237
0.00139125
0.0153714
0.00139945
0.0155081
0.00140444
0.0156474
0.0014061
0.0157893
0.00140433
0.015934
0.00139904
0.0160817
0.00139012
0.0162326
0.0013775
0.0163868
0.00136108
0.0165445
0.00134079
0.0167059
0.00131655
0.0168713
0.0012883
0.0170408
0.00125599
0.0172149
0.00121956
0.0173936
0.00117898
0.0175773
0.00113422
0.0177664
0.00108528
0.0179611
0.00103215
0.0181619
0.000974854
0.018369
0.000913431
0.018583
0.000847936
0.0188042
0.000778447
0.0190331
0.000705069
0.0192702
0.000627932
0.0195161
0.000547188
0.0197712
0.000463031
0.0200362
0.000375677
0.0203118
0.000285383
0.0205986
0.00019244
0.0208972
9.71813e-05
0.0212085
0.0215333
4.60697e-05
0.0117012
9.24451e-05
0.0117931
0.000139055
0.0118861
0.000185835
0.0119799
0.000232716
0.0120747
0.000279627
0.0121705
0.000326494
0.0122673
0.000373239
0.0123651
0.000419786
0.0124639
0.000466049
0.0125637
0.000511946
0.0126646
0.00055739
0.0127666
0.000602292
0.0128697
0.00064656
0.0129739
0.000690101
0.0130792
0.00073282
0.0131858
0.000774619
0.0132936
0.000815401
0.0134026
0.000855064
0.0135129
0.000893507
0.0136246
0.000930628
0.0137377
0.000966322
0.0138522
0.00100048
0.0139681
0.00103301
0.0140856
0.00106379
0.0142048
0.00109272
0.0143255
0.0011197
0.014448
0.00114461
0.0145723
0.00116736
0.0146985
0.00118782
0.0148267
0.00120591
0.014957
0.00122151
0.0150893
0.00123452
0.015224
0.00124484
0.015361
0.00125237
0.0155006
0.00125701
0.0156427
0.00125867
0.0157876
0.00125724
0.0159354
0.00125266
0.0160863
0.00124481
0.0162404
0.00123364
0.0163979
0.00121904
0.016559
0.00120097
0.016724
0.00117935
0.0168929
0.00115412
0.0170661
0.00112523
0.0172437
0.00109265
0.0174262
0.00105633
0.0176136
0.00101626
0.0178065
0.000972419
0.018005
0.000924826
0.0182095
0.00087349
0.0184204
0.00081845
0.018638
0.000759757
0.0188629
0.000697487
0.0190954
0.000631728
0.019336
0.000562603
0.0195852
0.00049025
0.0198435
0.000414841
0.0201116
0.000336572
0.02039
0.000255673
0.0206794
0.000172404
0.0209805
8.70633e-05
0.0212939
0.0216204
4.10853e-05
0.0116601
8.24338e-05
0.0117518
0.000123996
0.0118445
0.000165713
0.0119382
0.000207524
0.0120329
0.000249367
0.0121287
0.000291176
0.0122255
0.000332884
0.0123233
0.000374421
0.0124223
0.000415714
0.0125224
0.00045669
0.0126236
0.000497271
0.012726
0.000537378
0.0128295
0.000576932
0.0129343
0.000615849
0.0130403
0.000654043
0.0131476
0.00069143
0.0132562
0.000727921
0.0133661
0.000763426
0.0134774
0.000797853
0.0135902
0.000831112
0.0137044
0.000863109
0.0138202
0.000893749
0.0139375
0.000922936
0.0140564
0.000950577
0.0141771
0.000976573
0.0142995
0.00100083
0.0144238
0.00102325
0.0145499
0.00104373
0.0146781
0.00106219
0.0148083
0.00107852
0.0149406
0.00109262
0.0150752
0.00110441
0.0152122
0.0011138
0.0153516
0.00112068
0.0154937
0.00112497
0.0156384
0.00112659
0.015786
0.00112545
0.0159366
0.00112146
0.0160903
0.00111455
0.0162473
0.00110465
0.0164078
0.00109168
0.016572
0.00107558
0.01674
0.00105629
0.0169122
0.00103377
0.0170886
0.00100795
0.0172695
0.000978804
0.0174553
0.000946307
0.0176461
0.000910439
0.0178423
0.00087119
0.0180442
0.000828566
0.0182521
0.000782584
0.0184663
0.000733278
0.0186873
0.000680694
0.0189154
0.000624902
0.0191511
0.000565983
0.0193949
0.000504047
0.0196471
0.00043922
0.0199084
0.000371657
0.0201792
0.000301532
0.0204602
0.000229053
0.0207519
0.000154454
0.021055
7.79994e-05
0.0213703
0.0216984
3.66442e-05
0.0116234
7.35382e-05
0.0117149
0.00011062
0.0118074
0.00014784
0.011901
0.000185147
0.0119956
0.000222485
0.0120913
0.000259797
0.0121882
0.000297023
0.0122861
0.000334103
0.0123853
0.000370971
0.0124855
0.000407563
0.012587
0.00044381
0.0126897
0.000479643
0.0127937
0.000514989
0.012899
0.000549776
0.0130055
0.000583927
0.0131134
0.000617366
0.0132227
0.000650013
0.0133335
0.000681791
0.0134457
0.000712616
0.0135594
0.000742407
0.0136746
0.000771078
0.0137915
0.000798547
0.01391
0.000824727
0.0140303
0.000849532
0.0141523
0.000872875
0.0142762
0.000894669
0.014402
0.000914825
0.0145298
0.000933258
0.0146596
0.000949879
0.0147916
0.000964601
0.0149259
0.000977338
0.0150625
0.000988006
0.0152015
0.000996517
0.0153431
0.00100279
0.0154874
0.00100675
0.0156345
0.0010083
0.0157844
0.00100738
0.0159375
0.00100391
0.0160938
0.000997821
0.0162534
0.000989042
0.0164166
0.000977509
0.0165835
0.000963167
0.0167544
0.000945959
0.0169294
0.000925841
0.0171087
0.00090277
0.0172926
0.000876712
0.0174813
0.000847641
0.0176752
0.000815543
0.0178744
0.000780408
0.0180793
0.000742245
0.0182902
0.000701066
0.0185075
0.000656905
0.0187315
0.000609804
0.0189625
0.000559825
0.0192011
0.000507044
0.0194476
0.000451558
0.0197026
0.000393481
0.0199664
0.000332952
0.0202397
0.000270129
0.020523
0.000205199
0.0208168
0.000138368
0.0211219
6.98778e-05
0.0214388
0.0217683
3.27083e-05
0.0115907
6.56305e-05
0.011682
9.87244e-05
0.0117743
0.000131944
0.0118677
0.000165243
0.0119623
0.000198573
0.012058
0.000231883
0.0121549
0.00026512
0.0122529
0.000298229
0.0123521
0.000331156
0.0124526
0.000363841
0.0125543
0.000396223
0.0126574
0.000428242
0.0127617
0.000459832
0.0128674
0.00049093
0.0129744
0.000521466
0.0130829
0.000551375
0.0131928
0.000580584
0.0133043
0.000609022
0.0134172
0.000636617
0.0135318
0.000663296
0.0136479
0.000688982
0.0137658
0.0007136
0.0138854
0.000737072
0.0140068
0.000759322
0.0141301
0.00078027
0.0142552
0.000799838
0.0143824
0.000817948
0.0145117
0.000834521
0.0146431
0.000849476
0.0147767
0.000862737
0.0149126
0.000874223
0.015051
0.00088386
0.0151919
0.000891567
0.0153354
0.000897272
0.0154817
0.0009009
0.0156308
0.00090238
0.015783
0.000901639
0.0159382
0.000898614
0.0160968
0.000893236
0.0162588
0.000885448
0.0164244
0.000875189
0.0165938
0.000862409
0.0167672
0.000847057
0.0169447
0.000829092
0.0171267
0.000808474
0.0173132
0.000785178
0.0175046
0.000759175
0.0177012
0.000730455
0.0179031
0.000699009
0.0181108
0.000664846
0.0183244
0.000627976
0.0185444
0.000588431
0.018771
0.000546248
0.0190047
0.000501484
0.0192459
0.000454207
0.0194949
0.000404505
0.0197523
0.000352481
0.0200185