/*--------------------------------*- C++ -*----------------------------------*\
  =========                 |
  \\      /  F ield         | OpenFOAM: The Open Source CFD Toolbox
   \\    /   O peration     | Website:  https://openfoam.org
    \\  /    A nd           | Version:  11
     \\/     M anipulation  |
\*---------------------------------------------------------------------------*/
FoamFile
{
    format      ascii;
    class       volVectorField;
    location    "0";
    object      U;
}
// * * * * * * * * * * * * * * * * * * * * * * * * * * * * * * * * * * * * * //

dimensions      [0 1 -1 0 0 0 0];

internalField   nonuniform List<vector> 
4096
(
(0.0199427 0.974689 -4.55723e-21)
(0.0353633 0.977386 8.45191e-22)
(0.0493337 0.979522 9.22185e-22)
(0.0621477 0.981255 -7.65802e-22)
(0.0740189 0.982691 -2.47681e-21)
(0.0851055 0.983904 -2.32203e-21)
(0.0955262 0.984947 0)
(0.105372 0.98586 -4.9247e-21)
(0.114714 0.986669 6.73207e-22)
(0.123607 0.987395 1.87979e-21)
(0.132096 0.988054 -1.79662e-21)
(0.140216 0.988659 -1.72034e-21)
(0.147996 0.989218 0)
(0.155461 0.989739 -1.58363e-21)
(0.162629 0.990229 6.9977e-22)
(0.169517 0.990691 -6.20805e-22)
(0.176138 0.991131 -3.49481e-21)
(0.182502 0.991551 1.95946e-21)
(0.188618 0.991955 1.29831e-21)
(0.194494 0.992345 -1.24678e-21)
(0.200134 0.992723 -1.19623e-21)
(0.205542 0.993091 1.14639e-21)
(0.210721 0.993451 1.72351e-21)
(0.215673 0.993804 -2.65399e-21)
(0.220397 0.994152 -6.00724e-22)
(0.224894 0.994496 5.3406e-22)
(0.229161 0.994837 -2.3671e-21)
(0.233195 0.995176 1.35175e-21)
(0.236994 0.995515 -7.96525e-22)
(0.240552 0.995854 -7.43752e-22)
(0.243863 0.996195 6.89627e-22)
(0.246921 0.996538 -1.72321e-21)
(0.249719 0.996885 3.90011e-22)
(0.252246 0.997236 0)
(0.254493 0.997593 -4.54853e-22)
(0.256449 0.997957 -3.9028e-22)
(0.2581 0.998329 3.22765e-22)
(0.259432 0.99871 -2.51968e-22)
(0.26043 0.999101 -1.77519e-22)
(0.261076 0.999504 9.27252e-23)
(0.261349 0.999921 -3.05192e-23)
(0.261228 1.00035 1.41266e-22)
(0.260689 1.0008 -3.20849e-22)
(0.259704 1.00127 4.67981e-24)
(0.258243 1.00176 7.29222e-22)
(0.256272 1.00227 0)
(0.253754 1.00281 6.10246e-22)
(0.250644 1.00339 7.4341e-22)
(0.246896 1.00399 -1.81476e-21)
(0.242454 1.00464 2.10922e-21)
(0.237256 1.00533 1.2162e-21)
(0.231229 1.00608 0)
(0.224292 1.00689 1.6121e-21)
(0.216345 1.00777 3.89671e-21)
(0.207276 1.00874 -4.38472e-21)
(0.196945 1.00981 2.39052e-21)
(0.185187 1.01101 2.72095e-21)
(0.171793 1.01237 0)
(0.156498 1.01395 -6.93702e-22)
(0.138954 1.01582 8.84034e-21)
(0.118682 1.01809 1.09491e-21)
(0.094987 1.02097 -1.12197e-21)
(0.0667901 1.02483 6.69841e-21)
(0.0322709 1.03041 0)
(0.0396535 0.932021 2.85716e-20)
(0.0506237 0.93773 -2.16526e-20)
(0.0614311 0.942543 1.84922e-20)
(0.0719557 0.946654 9.5714e-21)
(0.0821386 0.950211 -8.975e-21)
(0.0919567 0.953324 -4.97079e-21)
(0.101407 0.956079 1.04869e-20)
(0.110498 0.958544 -4.77873e-21)
(0.119242 0.96077 1.53992e-20)
(0.127655 0.962798 1.16828e-20)
(0.135753 0.964662 -4.1926e-21)
(0.143551 0.966386 1.64467e-21)
(0.151063 0.967994 -9.09445e-21)
(0.158303 0.969502 1.31379e-20)
(0.165281 0.970926 1.47296e-21)
(0.172006 0.972277 1.41982e-21)
(0.178487 0.973566 9.50128e-21)
(0.184732 0.974802 -7.64416e-21)
(0.190745 0.975992 1.26872e-21)
(0.196531 0.977143 1.22029e-21)
(0.202094 0.978262 3.51727e-21)
(0.207436 0.979352 -2.37604e-21)
(0.212558 0.98042 6.65777e-21)
(0.217461 0.981469 -6.75687e-23)
(0.222144 0.982503 2.16433e-21)
(0.226606 0.983526 -1.1687e-22)
(0.230844 0.984542 2.65747e-21)
(0.234856 0.985553 0)
(0.238637 0.986563 7.85841e-22)
(0.242183 0.987574 -2.6867e-22)
(0.245486 0.988591 1.55564e-21)
(0.248542 0.989615 4.0307e-21)
(0.251341 0.99065 -1.34017e-21)
(0.253874 0.991699 1.02195e-21)
(0.256132 0.992765 1.34974e-21)
(0.258103 0.993851 3.86219e-22)
(0.259775 0.994961 -8.38501e-22)
(0.261132 0.996098 1.63178e-21)
(0.26216 0.997267 5.28519e-22)
(0.262841 0.998471 0)
(0.263155 0.999715 7.9071e-23)
(0.263082 1.001 1.90527e-22)
(0.262596 1.00234 4.69602e-22)
(0.261673 1.00374 -1.25136e-21)
(0.260282 1.0052 -1.09957e-21)
(0.25839 1.00673 0)
(0.255962 1.00835 -3.04883e-21)
(0.252955 1.01005 3.73253e-21)
(0.249323 1.01186 -2.64203e-21)
(0.245015 1.01378 -7.42677e-21)
(0.239971 1.01584 3.73726e-21)
(0.234123 1.01806 0)
(0.227395 1.02045 -4.73871e-21)
(0.219697 1.02306 2.21609e-21)
(0.210925 1.02591 -2.40917e-21)
(0.200958 1.02906 -6.97617e-21)
(0.189653 1.03258 3.48932e-21)
(0.176839 1.03655 -6.77355e-21)
(0.162313 1.04109 -1.01642e-20)
(0.145831 1.04639 -3.84799e-21)
(0.127108 1.0527 -4.377e-21)
(0.105827 1.06042 -4.98048e-21)
(0.0817037 1.07022 -2.60554e-21)
(0.0547009 1.08321 -3.17378e-20)
(0.0594793 0.901144 -2.17424e-20)
(0.0682252 0.907112 0)
(0.0770011 0.912559 1.56561e-20)
(0.0857351 0.917522 -1.87433e-20)
(0.0943707 0.922049 1.92945e-20)
(0.102866 0.926188 -2.20567e-20)
(0.111192 0.929986 0)
(0.119327 0.933485 3.38879e-21)
(0.12726 0.936723 1.50247e-20)
(0.134983 0.939734 -2.6347e-21)
(0.142491 0.942547 -2.02133e-20)
(0.149784 0.945187 0)
(0.156862 0.947677 1.4376e-20)
(0.163727 0.950036 -5.15359e-21)
(0.17038 0.95228 5.55081e-21)
(0.176824 0.954425 5.23048e-21)
(0.18306 0.956484 -2.27453e-21)
(0.189091 0.958467 -7.54074e-21)
(0.194919 0.960386 4.6775e-21)
(0.200543 0.962249 7.15282e-21)
(0.205965 0.964064 -1.593e-20)
(0.211185 0.965839 -6.72969e-21)
(0.216201 0.967581 1.28592e-20)
(0.221014 0.969296 -8.10301e-21)
(0.22562 0.97099 -6.0978e-21)
(0.230018 0.972668 3.85375e-21)
(0.234203 0.974335 -1.72063e-21)
(0.238173 0.975998 -3.25262e-21)
(0.241922 0.97766 -8.15727e-21)
(0.245446 0.979326 3.22097e-21)
(0.248736 0.981001 0)
(0.251788 0.98269 -1.22216e-21)
(0.254591 0.984398 0)
(0.257138 0.986129 -9.98586e-22)
(0.259418 0.987889 -2.63966e-21)
(0.26142 0.989683 0)
(0.263132 0.991516 -6.26083e-22)
(0.264539 0.993395 -4.89803e-22)
(0.265626 0.995325 -3.46395e-22)
(0.266376 0.997313 0)
(0.266772 0.999368 -1.32891e-22)
(0.266791 1.0015 -4.97797e-22)
(0.266412 1.00371 3.14513e-22)
(0.265609 1.00601 0)
(0.264354 1.00842 -3.53917e-21)
(0.262618 1.01094 5.4824e-21)
(0.260364 1.0136 -2.28894e-21)
(0.257556 1.0164 -1.41899e-21)
(0.25415 1.01937 3.53411e-21)
(0.250099 1.02252 2.14159e-21)
(0.24535 1.02589 -9.71095e-21)
(0.239844 1.02951 2.41225e-22)
(0.233511 1.03341 3.03871e-21)
(0.226278 1.03763 0)
(0.218056 1.04224 0)
(0.20875 1.04731 -1.45493e-20)
(0.198251 1.05292 2.27001e-20)
(0.186435 1.05919 5.01008e-22)
(0.17317 1.06626 -8.15922e-21)
(0.158316 1.07434 0)
(0.141738 1.0837 2.71395e-20)
(0.123337 1.0947 -4.26203e-20)
(0.103097 1.10782 3.28197e-20)
(0.0811798 1.12365 -2.05761e-20)
(0.0788037 0.876048 0)
(0.0861701 0.881966 0)
(0.0936035 0.887554 -1.5945e-20)
(0.101064 0.892818 1.56357e-20)
(0.108515 0.897771 0)
(0.115924 0.902431 0)
(0.123264 0.906818 0)
(0.130513 0.910953 -2.81246e-20)
(0.137653 0.914858 1.5657e-20)
(0.144668 0.918554 2.17812e-20)
(0.151547 0.92206 -1.53586e-20)
(0.158282 0.925397 0)
(0.164865 0.928581 -3.25405e-28)
(0.171291 0.93163 -5.26138e-21)
(0.177555 0.934556 -1.02574e-20)
(0.183655 0.937376 0)
(0.189587 0.9401 -1.92784e-20)
(0.195349 0.94274 1.36632e-20)
(0.200939 0.945308 1.38213e-20)
(0.206354 0.947812 -1.30507e-20)
(0.211593 0.950263 -4.26854e-21)
(0.216652 0.952667 2.51895e-28)
(0.221529 0.955034 0)
(0.226222 0.95737 -8.25649e-21)
(0.230726 0.959683 1.12605e-20)
(0.235038 0.961979 0)
(0.239153 0.964265 3.29956e-21)
(0.243068 0.966547 3.12341e-21)
(0.246775 0.968831 9.80428e-21)
(0.25027 0.971124 -6.20238e-21)
(0.253546 0.973432 0)
(0.256594 0.975761 4.05334e-21)
(0.259407 0.978117 -5.75336e-21)
(0.261976 0.980506 0)
(0.26429 0.982937 4.72509e-21)
(0.266339 0.985414 -2.53583e-21)
(0.268111 0.987946 0)
(0.269591 0.990542 1.746e-21)
(0.270766 0.993208 -1.20912e-21)
(0.271619 0.995954 -7.20344e-22)
(0.272133 0.998791 2.1445e-22)
(0.272288 1.00173 2.50993e-22)
(0.272063 1.00478 0)
(0.271434 1.00795 -9.67136e-22)
(0.270377 1.01127 -1.344e-21)
(0.268863 1.01474 3.45448e-21)
(0.266861 1.01839 -2.23109e-21)
(0.264336 1.02224 2.71384e-21)
(0.261251 1.0263 -9.98384e-21)
(0.257565 1.03062 7.72642e-21)
(0.253231 1.03522 0)
(0.248198 1.04014 5.04729e-21)
(0.242411 1.04542 -1.26569e-20)
(0.235809 1.05113 -5.41576e-22)
(0.228325 1.05732 1.59945e-20)
(0.219886 1.06407 8.25618e-21)
(0.210414 1.07149 0)
(0.199831 1.07969 -1.02962e-20)
(0.188056 1.08881 0)
(0.175019 1.09905 0)
(0.160667 1.11064 0)
(0.144986 1.12383 1.5183e-20)
(0.128025 1.13896 0)
(0.109925 1.15636 1.74876e-20)
(0.0976025 0.854622 0)
(0.104013 0.860438 2.62826e-20)
(0.110496 0.866031 8.59743e-22)
(0.117027 0.8714 -5.38663e-20)
(0.123581 0.876547 4.07543e-20)
(0.130138 0.881478 4.51393e-22)
(0.136675 0.886201 -1.36738e-20)
(0.143175 0.890726 -1.41865e-20)
(0.14962 0.895064 1.3744e-20)
(0.155995 0.899228 -1.92573e-20)
(0.162288 0.90323 8.66263e-21)
(0.168488 0.907082 0)
(0.174584 0.910797 -4.85895e-21)
(0.180569 0.914387 0)
(0.186434 0.917864 -4.28721e-28)
(0.192174 0.921238 0)
(0.197782 0.924522 1.3277e-20)
(0.203254 0.927724 -1.26283e-20)
(0.208585 0.930854 1.28236e-20)
(0.213769 0.933922 -1.6265e-20)
(0.218803 0.936937 -1.2295e-20)
(0.223683 0.939907 1.54568e-20)
(0.228403 0.94284 0)
(0.232959 0.945745 -7.15733e-21)
(0.237348 0.948627 -1.44323e-20)
(0.241563 0.951496 1.02618e-20)
(0.245599 0.954358 -6.25318e-21)
(0.249452 0.95722 0)
(0.253114 0.96009 2.79709e-21)
(0.25658 0.962974 -2.62271e-21)
(0.259841 0.96588 0)
(0.262891 0.968816 0)
(0.265721 0.971787 2.05485e-21)
(0.268322 0.974804 0)
(0.270684 0.977873 0)
(0.272797 0.981002 0)
(0.274647 0.984202 0)
(0.276224 0.987481 0)
(0.277513 0.99085 -2.42766e-21)
(0.278499 0.99432 -4.25846e-22)
(0.279165 0.997902 6.30457e-23)
(0.279495 1.00161 -6.54201e-22)
(0.279467 1.00546 0)
(0.279061 1.00946 9.11495e-22)
(0.278255 1.01363 -2.55399e-21)
(0.277022 1.018 3.26471e-21)
(0.275336 1.02259 2.10883e-21)
(0.273166 1.02741 5.2857e-21)
(0.27048 1.0325 -3.08664e-21)
(0.267243 1.03788 0)
(0.263417 1.04361 0)
(0.25896 1.04971 1.02725e-20)
(0.253828 1.05624 -1.13913e-20)
(0.247973 1.06326 0)
(0.241346 1.07084 0)
(0.233896 1.07905 0)
(0.225569 1.08799 0)
(0.216318 1.09777 3.14618e-20)
(0.206098 1.10854 -2.37454e-20)
(0.194876 1.12043 0)
(0.18264 1.13364 0)
(0.169405 1.14838 -1.30608e-27)
(0.155228 1.16485 1.42855e-20)
(0.140212 1.1833 -5.4199e-20)
(0.115931 0.835786 -8.39324e-21)
(0.121638 0.841497 -2.24225e-20)
(0.127415 0.847052 2.2243e-20)
(0.133244 0.852447 2.34693e-20)
(0.139111 0.857683 -3.20337e-20)
(0.144999 0.86276 0)
(0.150894 0.867681 -2.45401e-20)
(0.156779 0.872452 2.84665e-20)
(0.162641 0.877078 -2.49229e-20)
(0.168468 0.881565 2.42089e-20)
(0.174247 0.885921 4.44301e-21)
(0.179968 0.890153 0)
(0.18562 0.894272 0)
(0.191195 0.898284 0)
(0.196684 0.902198 4.22658e-21)
(0.202079 0.906024 0)
(0.207373 0.909769 0)
(0.212559 0.913443 1.19517e-20)
(0.217632 0.917054 -2.31663e-20)
(0.222585 0.92061 1.49899e-20)
(0.227413 0.924119 2.24245e-20)
(0.232109 0.927588 -1.07572e-20)
(0.236669 0.931027 -6.91658e-21)
(0.241087 0.934442 3.33597e-21)
(0.245357 0.937842 -7.06898e-21)
(0.249473 0.941233 1.9553e-20)
(0.25343 0.944624 -6.3271e-21)
(0.257222 0.948022 9.19748e-21)
(0.260841 0.951434 -8.48152e-21)
(0.264281 0.954868 4.94796e-21)
(0.267535 0.958333 0)
(0.270594 0.961836 -4.26176e-21)
(0.27345 0.965387 0)
(0.276095 0.968992 -3.50803e-21)
(0.278519 0.972663 0)
(0.280712 0.976407 0)
(0.282661 0.980236 0)
(0.284357 0.984161 -1.75671e-21)
(0.285784 0.988192 0)
(0.286931 0.992343 3.66422e-22)
(0.28778 0.996627 0)
(0.288317 1.00106 -7.88457e-22)
(0.288524 1.00565 3.94492e-21)
(0.288382 1.01043 1.19071e-22)
(0.287871 1.01541 -6.99843e-21)
(0.286968 1.02061 -6.33142e-21)
(0.28565 1.02605 -2.90286e-22)
(0.283891 1.03177 9.51979e-21)
(0.281665 1.0378 0)
(0.278942 1.04416 0)
(0.275691 1.0509 0)
(0.27188 1.05807 8.78412e-21)
(0.267474 1.06571 0)
(0.262438 1.07388 2.3684e-20)
(0.256736 1.08264 -2.77732e-20)
(0.250333 1.09209 3.13119e-20)
(0.243195 1.1023 -1.72241e-20)
(0.235294 1.11337 -1.69602e-20)
(0.226607 1.12544 0)
(0.217123 1.13861 0)
(0.206845 1.15305 0)
(0.195799 1.16891 -1.17636e-20)
(0.184036 1.18635 -4.43945e-20)
(0.171633 1.20555 1.06886e-19)
(0.133852 0.818881 -1.81956e-20)
(0.139022 0.824494 -1.1955e-20)
(0.144257 0.829996 -6.34682e-22)
(0.149546 0.835384 4.75859e-20)
(0.154876 0.840658 8.38806e-21)
(0.160237 0.845816 -3.37009e-20)
(0.165616 0.850859 2.07171e-20)
(0.171003 0.855789 -2.95597e-20)
(0.176385 0.86061 -8.60517e-21)
(0.181753 0.865325 5.1309e-20)
(0.187096 0.869938 -1.35999e-20)
(0.192405 0.874455 7.82505e-21)
(0.197669 0.878881 0)
(0.202881 0.883223 -7.69113e-21)
(0.208032 0.887485 0)
(0.213114 0.891676 -2.9577e-20)
(0.21812 0.895802 1.38272e-20)
(0.223043 0.89987 -1.44814e-20)
(0.227875 0.903887 2.0765e-20)
(0.232611 0.90786 2.81191e-20)
(0.237243 0.911796 -2.69171e-20)
(0.241766 0.915703 -6.57514e-21)
(0.246174 0.919588 6.37715e-21)
(0.25046 0.923458 -2.57336e-20)
(0.254619 0.927321 1.84019e-20)
(0.258643 0.931184 5.70751e-21)
(0.262527 0.935054 0)
(0.266265 0.93894 0)
(0.269848 0.942849 0)
(0.273271 0.94679 3.16407e-21)
(0.276526 0.950771 -7.09939e-21)
(0.279606 0.9548 6.87278e-21)
(0.282501 0.958886 -6.13678e-21)
(0.285203 0.96304 6.60268e-21)
(0.287704 0.96727 5.18979e-21)
(0.289993 0.971588 -1.8491e-21)
(0.29206 0.976004 0)
(0.293894 0.98053 -3.05902e-21)
(0.295483 0.985179 -7.819e-23)
(0.296814 0.989964 1.99408e-21)
(0.297874 0.994901 0)
(0.298648 1 -3.6227e-22)
(0.299121 1.00529 0)
(0.299276 1.01078 -1.56396e-21)
(0.299095 1.0165 2.2195e-21)
(0.29856 1.02246 8.77787e-21)
(0.297651 1.0287 -7.16973e-21)
(0.296346 1.03524 0)
(0.294623 1.04211 0)
(0.292459 1.04935 -6.15324e-21)
(0.289829 1.057 7.09139e-21)
(0.286707 1.0651 -1.61728e-20)
(0.283069 1.0737 0)
(0.278888 1.08287 -2.28596e-20)
(0.27414 1.09265 -9.66836e-22)
(0.268801 1.10313 1.5259e-20)
(0.26285 1.11439 1.3953e-20)
(0.256273 1.12652 6.19904e-28)
(0.249059 1.13962 1.99247e-20)
(0.241208 1.15379 -3.00657e-21)
(0.232733 1.16917 2.39694e-20)
(0.223659 1.18588 2.18611e-20)
(0.214031 1.20405 -2.70418e-20)
(0.203909 1.22381 6.76355e-21)
(0.15142 0.803459 2.20939e-20)
(0.156172 0.808983 -1.28373e-20)
(0.160984 0.81443 0)
(0.165849 0.819797 -6.64571e-21)
(0.170756 0.825081 0)
(0.175697 0.830283 -6.81483e-21)
(0.180664 0.835403 -6.87648e-21)
(0.185647 0.840441 2.59565e-20)
(0.190638 0.845398 -1.17011e-20)
(0.195627 0.850277 -2.64504e-20)
(0.200607 0.855081 5.07469e-21)
(0.205568 0.859813 -6.95073e-21)
(0.210503 0.864477 1.98534e-20)
(0.215404 0.869077 -2.5391e-20)
(0.220262 0.873618 3.23234e-20)
(0.225072 0.878106 -1.24613e-20)
(0.229824 0.882545 6.65057e-21)
(0.234513 0.886941 -6.54871e-21)
(0.239131 0.8913 -6.43352e-21)
(0.243672 0.895629 1.29584e-20)
(0.24813 0.899933 -1.83754e-20)
(0.252498 0.904219 -1.26975e-20)
(0.25677 0.908494 -6.45667e-21)
(0.260939 0.912766 5.05989e-21)
(0.265 0.917039 1.69319e-20)
(0.268945 0.921323 -2.22878e-20)
(0.272768 0.925625 1.08752e-20)
(0.276464 0.929952 0)
(0.280024 0.934312 0)
(0.283442 0.938713 0)
(0.286711 0.943165 -1.76937e-20)
(0.289823 0.947676 1.60907e-20)
(0.292771 0.952255 5.92956e-21)
(0.295545 0.956912 -8.31398e-21)
(0.298139 0.961658 0)
(0.300541 0.966504 -4.7421e-21)
(0.302743 0.971462 -3.59651e-21)
(0.304734 0.976543 4.35835e-21)
(0.306504 0.981761 0)
(0.308041 0.987131 -6.83086e-22)
(0.309334 0.992669 0)
(0.310369 0.99839 -2.86431e-22)
(0.311133 1.00431 -5.90275e-23)
(0.311611 1.01046 5.55954e-21)
(0.311789 1.01685 0)
(0.311651 1.0235 -2.67766e-21)
(0.31118 1.03046 0)
(0.310358 1.03773 8.40891e-21)
(0.309168 1.04536 -9.73844e-21)
(0.307591 1.05337 5.64648e-21)
(0.305609 1.06182 -6.49818e-21)
(0.303201 1.07074 7.39694e-21)
(0.30035 1.08018 -1.83516e-20)
(0.297037 1.0902 3.15208e-20)
(0.293245 1.10085 -2.25794e-20)
(0.28896 1.1122 1.14677e-20)
(0.28417 1.12432 -5.00864e-28)
(0.278867 1.1373 1.37587e-20)
(0.273052 1.15123 0)
(0.266728 1.16619 -1.61505e-20)
(0.259913 1.1823 2.13618e-20)
(0.25263 1.19965 -4.07986e-20)
(0.244919 1.21837 2.49686e-20)
(0.23683 1.23855 -4.94524e-21)
(0.16868 0.789196 0)
(0.173103 0.794641 5.61042e-21)
(0.177583 0.800034 0)
(0.182111 0.805371 0)
(0.186682 0.810653 -5.9045e-21)
(0.191289 0.815878 0)
(0.195926 0.821046 6.04394e-21)
(0.200584 0.826156 0)
(0.205257 0.831211 0)
(0.209938 0.836212 1.72255e-20)
(0.214619 0.841159 -2.808e-20)
(0.219293 0.846056 1.69876e-20)
(0.223953 0.850906 -1.76754e-20)
(0.228593 0.855712 1.10398e-20)
(0.233205 0.860477 6.09549e-21)
(0.237783 0.865206 0)
(0.24232 0.869903 0)
(0.246809 0.874573 0)
(0.251245 0.87922 5.81177e-21)
(0.25562 0.883851 -1.17332e-20)
(0.259928 0.88847 1.66756e-20)
(0.264164 0.893085 0)
(0.268321 0.8977 5.32494e-21)
(0.272393 0.902322 -5.17132e-21)
(0.276373 0.906959 0)
(0.280256 0.911616 -2.04325e-20)
(0.284035 0.916302 3.43814e-20)
(0.287704 0.921024 -1.41034e-20)
(0.291256 0.925789 1.40083e-20)
(0.294684 0.930606 -1.29011e-20)
(0.297981 0.935484 3.71585e-21)
(0.301141 0.940432 0)
(0.304156 0.945459 -1.09957e-20)
(0.307017 0.950575 1.97693e-20)
(0.309718 0.955791 3.12922e-22)
(0.312249 0.961119 -1.33681e-20)
(0.314603 0.966571 -2.08752e-21)
(0.316769 0.972159 5.22154e-21)
(0.318737 0.977897 1.99542e-21)
(0.320499 0.9838 -2.40841e-21)
(0.322043 0.989885 3.78606e-22)
(0.323359 0.996167 0)
(0.324434 1.00267 1.48587e-21)
(0.325256 1.0094 -6.28678e-21)
(0.325813 1.0164 3.5505e-21)
(0.326092 1.02368 0)
(0.326079 1.03127 0)
(0.32576 1.0392 -7.68239e-21)
(0.325121 1.04749 8.89384e-21)
(0.324147 1.05619 5.1525e-21)
(0.322824 1.06534 -1.26898e-20)
(0.321139 1.07497 1.40752e-20)
(0.319077 1.08513 0)
(0.316627 1.09587 0)
(0.313778 1.10724 -9.39548e-21)
(0.310521 1.11932 -1.03559e-20)
(0.306851 1.13216 -1.13474e-20)
(0.302767 1.14583 0)
(0.298271 1.16042 -1.34004e-20)
(0.293374 1.17601 0)
(0.288091 1.19268 -5.36209e-20)
(0.282449 1.21053 3.96748e-20)
(0.27648 1.22966 -1.75099e-20)
(0.270228 1.25015 -1.84587e-20)
(0.18567 0.775847 -4.02325e-21)
(0.189833 0.781221 -2.49756e-20)
(0.194049 0.786562 -5.024e-21)
(0.198311 0.791868 -5.11342e-21)
(0.202616 0.797138 5.1943e-21)
(0.206957 0.802372 -5.26614e-21)
(0.211329 0.807569 -5.32849e-21)
(0.215727 0.81273 1.47945e-20)
(0.220145 0.817856 -1.99723e-20)
(0.224576 0.822946 -5.45488e-21)
(0.229015 0.828003 0)
(0.233455 0.833029 -5.48573e-21)
(0.237891 0.838026 -5.4845e-21)
(0.242317 0.842996 -2.13087e-20)
(0.246727 0.847942 1.53851e-20)
(0.251114 0.852869 -5.4125e-21)
(0.255473 0.857779 -2.13136e-20)
(0.259798 0.862677 1.53909e-20)
(0.264083 0.867567 -5.23609e-21)
(0.268322 0.872454 -5.15369e-21)
(0.272509 0.877343 -1.05413e-20)
(0.276638 0.88224 9.94909e-21)
(0.280704 0.887149 1.51905e-20)
(0.2847 0.892078 -2.9341e-20)
(0.288621 0.897032 9.55488e-21)
(0.292461 0.902019 4.40315e-21)
(0.296214 0.907044 -4.2336e-21)
(0.299874 0.912116 9.31374e-21)
(0.303434 0.917243 -3.41712e-21)
(0.306888 0.922432 -2.41106e-20)
(0.31023 0.927692 7.80871e-21)
(0.313452 0.933032 -3.17648e-21)
(0.316549 0.938462 0)
(0.319513 0.943992 0)
(0.322337 0.949634 -8.36145e-21)
(0.325012 0.955397 5.04365e-21)
(0.327532 0.961295 -6.24496e-21)
(0.329888 0.967341 9.91445e-21)
(0.332071 0.973549 -4.62216e-21)
(0.334072 0.979934 -6.21944e-22)
(0.335884 0.986511 -2.1149e-22)
(0.337495 0.993299 8.54451e-22)
(0.338896 1.00032 -3.1921e-21)
(0.340077 1.00758 3.37436e-21)
(0.341028 1.01512 -3.33476e-21)
(0.341737 1.02295 2.08359e-21)
(0.342194 1.03111 -2.88936e-21)
(0.342388 1.03961 6.73056e-21)
(0.342308 1.0485 4.01766e-21)
(0.341943 1.05779 9.90047e-21)
(0.341283 1.06754 -1.10963e-20)
(0.340317 1.07778 1.93584e-20)
(0.339037 1.08855 -1.45439e-20)
(0.337435 1.09991 -9.41655e-21)
(0.335504 1.11189 3.54175e-20)
(0.333241 1.12457 4.00528e-20)
(0.330645 1.13799 -2.2824e-20)
(0.327717 1.15222 1.11036e-20)
(0.324466 1.16734 1.20122e-20)
(0.320901 1.18342 0)
(0.317041 1.20053 6.17548e-20)
(0.31291 1.21876 -5.75117e-20)
(0.308537 1.23819 1.40672e-20)
(0.303962 1.2589 -1.66494e-21)
(0.20242 0.76322 -2.5611e-20)
(0.206378 0.768529 0)
(0.210385 0.77382 -1.89439e-20)
(0.214438 0.779093 -5.27712e-21)
(0.218532 0.784347 4.83765e-20)
(0.222662 0.789581 -4.48342e-20)
(0.226825 0.794795 2.95578e-20)
(0.231016 0.79999 0)
(0.23523 0.805166 1.44075e-20)
(0.239463 0.810324 4.83656e-21)
(0.243708 0.815466 0)
(0.247962 0.820592 2.85043e-20)
(0.252219 0.825705 -8.66954e-21)
(0.256473 0.830807 5.16686e-22)
(0.260721 0.835901 2.34745e-20)
(0.264956 0.840989 1.91071e-20)
(0.269173 0.846076 6.04019e-22)
(0.273367 0.851164 0)
(0.277533 0.856258 4.70792e-21)
(0.281665 0.861362 9.28303e-21)
(0.285758 0.866481 4.56404e-21)
(0.289807 0.871619 -9.45403e-21)
(0.293806 0.876782 1.32873e-20)
(0.297751 0.881976 2.63137e-20)
(0.301634 0.887207 -8.67371e-21)
(0.305452 0.892481 0)
(0.309198 0.897805 1.15644e-20)
(0.312867 0.903186 3.69346e-21)
(0.316453 0.908632 1.05569e-20)
(0.31995 0.914151 6.66182e-21)
(0.323352 0.919751 9.38657e-21)
(0.326653 0.925441 8.73702e-21)
(0.329848 0.931231 -9.30986e-21)
(0.332928 0.937131 8.24669e-21)
(0.335889 0.943152 -3.35865e-21)
(0.338723 0.949305 8.43437e-21)
(0.341423 0.955604 1.59319e-21)
(0.343982 0.96206 0)
(0.346392 0.968687 2.82851e-21)
(0.348646 0.975502 -1.61613e-21)
(0.350737 0.98252 2.22541e-21)
(0.352655 0.989758 3.13629e-22)
(0.354394 0.997235 1.73816e-21)
(0.355944 1.00497 -5.00581e-21)
(0.357297 1.01299 -9.03613e-21)
(0.358445 1.02131 5.74609e-21)
(0.359379 1.02996 2.52267e-21)
(0.36009 1.03897 -1.2227e-20)
(0.360571 1.04836 3.95989e-21)
(0.360813 1.05817 -1.23843e-20)
(0.360809 1.06844 -9.34635e-21)
(0.360553 1.0792 -1.70602e-20)
(0.360039 1.09049 -2.60475e-20)
(0.359262 1.10235 -7.48474e-21)
(0.35822 1.11484 -8.29075e-21)
(0.356912 1.12801 1.25719e-20)
(0.355341 1.14191 -3.88652e-20)
(0.353511 1.1566 1.35227e-20)
(0.351431 1.17213 -5.05077e-20)
(0.349115 1.18859 3.85414e-21)
(0.346579 1.20604 -3.71319e-20)
(0.343846 1.22454 -3.9511e-20)
(0.340946 1.24419 -2.78877e-20)
(0.337913 1.26504 3.7863e-20)
(0.218952 0.751161 5.47226e-29)
(0.22275 0.75641 -7.66759e-21)
(0.226595 0.761654 -7.82351e-21)
(0.230483 0.766893 -1.32347e-20)
(0.234412 0.772126 1.29358e-20)
(0.238378 0.777354 2.22491e-20)
(0.242377 0.782575 -3.63982e-20)
(0.246407 0.787792 2.24421e-20)
(0.250461 0.793004 1.50992e-20)
(0.254538 0.798212 7.79051e-22)
(0.258632 0.803417 -5.65807e-20)
(0.26274 0.808622 1.52006e-20)
(0.266857 0.813827 2.4959e-20)
(0.270978 0.819035 -7.87934e-21)
(0.2751 0.824248 -4.19238e-20)
(0.279218 0.829469 2.55096e-20)
(0.283326 0.834701 -2.47487e-20)
(0.287421 0.839948 0)
(0.291498 0.845213 1.27943e-20)
(0.295552 0.8505 -2.06711e-20)
(0.299579 0.855813 -8.21818e-21)
(0.303573 0.861158 0)
(0.30753 0.866539 -1.24112e-20)
(0.311445 0.871961 -8.11813e-21)
(0.315313 0.877431 1.1599e-20)
(0.319128 0.882955 0)
(0.322887 0.888539 -6.99723e-21)
(0.326584 0.89419 6.71293e-21)
(0.330213 0.899916 -6.40382e-21)
(0.33377 0.905724 -1.02159e-20)
(0.337249 0.911624 3.66718e-21)
(0.340644 0.917623 -2.92649e-29)
(0.34395 0.923731 0)
(0.347162 0.929958 4.45759e-21)
(0.350273 0.936316 -3.98167e-21)
(0.353278 0.942815 0)
(0.35617 0.949467 -2.38448e-21)
(0.358943 0.956287 4.17493e-21)
(0.361592 0.963286 1.46858e-28)
(0.364109 0.970482 0)
(0.366488 0.977888 -2.24949e-30)
(0.368723 0.985523 2.98829e-22)
(0.370806 0.993404 -1.06198e-21)
(0.372732 1.00155 3.66884e-21)
(0.374493 1.00999 -5.20622e-21)
(0.376082 1.01873 0)
(0.377494 1.02781 2.68536e-29)
(0.378722 1.03726 -5.8813e-21)
(0.379759 1.04709 6.65083e-21)
(0.380602 1.05734 -6.71308e-28)
(0.381244 1.06805 8.74064e-28)
(0.381682 1.07924 -1.08093e-20)
(0.381914 1.09097 -4.56082e-22)
(0.381936 1.10326 1.33612e-20)
(0.38175 1.11617 -1.3758e-20)
(0.381358 1.12973 1.51039e-20)
(0.380763 1.14401 9.57465e-29)
(0.379972 1.15906 -1.78846e-20)
(0.378997 1.17492 0)
(0.377851 1.19167 2.07312e-20)
(0.376551 1.20936 2.04002e-28)
(0.37512 1.22807 5.30028e-20)
(0.373585 1.24785 -3.04044e-20)
(0.371979 1.26878 0)
(0.235285 0.739542 -2.73131e-20)
(0.238959 0.744734 6.22006e-21)
(0.242679 0.749933 2.46248e-20)
(0.246441 0.755137 0)
(0.250244 0.760347 7.18e-21)
(0.254083 0.765563 -1.97207e-20)
(0.257957 0.770785 1.21173e-20)
(0.261863 0.776013 0)
(0.265796 0.781249 0)
(0.269754 0.786493 0)
(0.273734 0.791747 7.68546e-21)
(0.277731 0.797011 -2.19737e-20)
(0.281743 0.802289 4.37544e-20)
(0.285764 0.807581 -4.42024e-20)
(0.289793 0.81289 2.96741e-20)
(0.293824 0.818219 2.28022e-20)
(0.297855 0.823571 -2.98517e-20)
(0.30188 0.828949 2.29518e-20)
(0.305896 0.834356 7.60094e-22)
(0.309899 0.839796 -2.21347e-20)
(0.313884 0.845273 0)
(0.317847 0.850793 0)
(0.321785 0.856359 0)
(0.325693 0.861976 0)
(0.329565 0.867652 0)
(0.333399 0.873391 -1.06136e-20)
(0.33719 0.879199 9.99645e-21)
(0.340932 0.885085 -6.08418e-21)
(0.344622 0.891054 5.81053e-21)
(0.348254 0.897114 -5.51304e-21)
(0.351824 0.903275 0)
(0.355328 0.909543 -1.31655e-20)
(0.35876 0.91593 7.49372e-21)
(0.362115 0.922444 -4.06855e-21)
(0.365389 0.929097 3.63943e-21)
(0.368576 0.935899 5.7033e-21)
(0.371671 0.942862 -1.22842e-20)
(0.374669 0.95 3.84302e-21)
(0.377565 0.957325 -1.62126e-21)
(0.380353 0.964853 2.97655e-21)
(0.383028 0.972599 -1.17563e-21)
(0.385585 0.98058 0)
(0.388018 0.988814 2.74324e-21)
(0.390322 0.997319 -3.15081e-21)
(0.392492 1.00612 2.43252e-21)
(0.394523 1.01523 -9.76621e-21)
(0.396411 1.02468 1.21272e-20)
(0.39815 1.03449 0)
(0.399737 1.0447 1.82758e-20)
(0.401169 1.05532 -7.15388e-21)
(0.402443 1.0664 2.64667e-28)
(0.403558 1.07796 0)
(0.404512 1.09004 1.00639e-20)
(0.405305 1.10268 0)
(0.405941 1.11593 2.63441e-20)
(0.406423 1.12981 -1.29836e-20)
(0.406758 1.14439 -1.74527e-21)
(0.406953 1.15971 3.49494e-20)
(0.407019 1.17582 -1.98985e-20)
(0.406973 1.19279 0)
(0.406831 1.21065 3.96701e-20)
(0.406615 1.22948 0)
(0.406351 1.24934 2.23051e-20)
(0.40607 1.2703 0)
(0.251431 0.728258 5.8879e-21)
(0.255013 0.733397 0)
(0.258639 0.738551 1.62149e-20)
(0.262307 0.74372 -1.61246e-20)
(0.266016 0.748904 0)
(0.269761 0.754103 0)
(0.273542 0.759319 -1.79044e-20)
(0.277356 0.764551 1.76938e-20)
(0.2812 0.7698 0)
(0.285072 0.775069 -6.78775e-21)
(0.288968 0.780357 -1.92905e-20)
(0.292886 0.785666 1.89354e-20)
(0.296822 0.790999 -1.9826e-20)
(0.300774 0.796357 1.93899e-20)
(0.304738 0.801743 2.02314e-20)
(0.308712 0.807159 -4.00876e-20)
(0.312691 0.812608 4.71895e-20)
(0.316672 0.818092 -1.98718e-20)
(0.320653 0.823617 0)
(0.324628 0.829184 6.72311e-21)
(0.328596 0.834798 0)
(0.332551 0.840464 0)
(0.336491 0.846186 -1.3722e-20)
(0.340412 0.851969 1.9204e-20)
(0.344309 0.857819 0)
(0.34818 0.863741 -9.57896e-21)
(0.35202 0.869742 9.031e-21)
(0.355824 0.875828 9.07602e-21)
(0.359591 0.882006 -1.37256e-20)
(0.363314 0.888284 8.4086e-21)
(0.36699 0.89467 2.73872e-22)
(0.370616 0.901172 -7.29741e-21)
(0.374186 0.907799 0)
(0.377697 0.914562 0)
(0.381144 0.92147 -6.63272e-21)
(0.384523 0.928534 5.20605e-21)
(0.387831 0.935767 -8.77341e-21)
(0.391061 0.94318 -1.27768e-22)
(0.394211 0.950787 2.67252e-21)
(0.397276 0.958603 -9.64735e-22)
(0.400252 0.966642 0)
(0.403134 0.974921 0)
(0.405919 0.983457 0)
(0.408603 0.992268 2.90364e-21)
(0.411181 1.00138 -4.16717e-21)
(0.413651 1.0108 -2.94149e-21)
(0.416009 1.02056 7.21357e-21)
(0.418253 1.03069 -9.23751e-21)
(0.42038 1.04121 1.07067e-20)
(0.422388 1.05214 0)
(0.424278 1.06352 7.11326e-21)
(0.426048 1.07538 -2.55672e-20)
(0.4277 1.08776 1.91636e-20)
(0.429236 1.10068 0)
(0.43066 1.11419 0)
(0.431977 1.12833 2.43628e-20)
(0.433195 1.14313 0)
(0.434324 1.15866 0)
(0.435375 1.17495 0)
(0.436364 1.19206 0)
(0.437308 1.21004 -1.77649e-20)
(0.438229 1.22894 0)
(0.439153 1.24882 0)
(0.440108 1.26975 0)
(0.2674 0.717221 -1.04572e-20)
(0.270916 0.722307 -5.34499e-21)
(0.274475 0.727417 5.45615e-21)
(0.278076 0.732549 9.23557e-21)
(0.281717 0.737704 -1.46957e-20)
(0.285397 0.742883 0)
(0.289113 0.748087 -5.83785e-21)
(0.292863 0.753315 -5.9149e-21)
(0.296645 0.75857 -2.25725e-20)
(0.300457 0.763852 2.23912e-20)
(0.304297 0.769163 -6.09329e-21)
(0.308162 0.774505 0)
(0.31205 0.779879 0)
(0.315958 0.785287 1.17077e-20)
(0.319884 0.790732 -4.1729e-20)
(0.323824 0.796216 3.5825e-20)
(0.327776 0.801742 -2.38822e-20)
(0.331737 0.807313 -6.13266e-21)
(0.335705 0.812932 -6.08733e-21)
(0.339675 0.818603 -6.02765e-21)
(0.343646 0.82433 0)
(0.347614 0.830117 -5.86304e-21)
(0.351576 0.835969 -2.38468e-20)
(0.355529 0.84189 3.51496e-20)
(0.359469 0.847886 -4.0104e-20)
(0.363393 0.853963 1.66813e-20)
(0.367299 0.860125 0)
(0.371182 0.866381 0)
(0.375039 0.872737 -4.75195e-21)
(0.378867 0.8792 4.51721e-21)
(0.382662 0.885777 -1.15091e-20)
(0.386421 0.892478 2.62727e-21)
(0.390141 0.899311 0)
(0.393818 0.906286 0)
(0.397448 0.913412 3.01479e-21)
(0.401028 0.920701 -2.64337e-21)
(0.404555 0.928164 4.07251e-21)
(0.408025 0.935813 -8.3903e-21)
(0.411435 0.943661 1.08271e-21)
(0.414782 0.951721 -2.57259e-21)
(0.418061 0.96001 7.1011e-22)
(0.421271 0.968541 -2.84136e-22)
(0.424408 0.977333 1.33715e-21)
(0.42747 0.986403 0)
(0.430454 0.99577 1.94017e-21)
(0.433357 1.00545 -5.23284e-21)
(0.436179 1.01548 1.31745e-20)
(0.438918 1.02587 -1.62764e-20)
(0.441572 1.03664 9.61263e-21)
(0.444143 1.04783 0)
(0.446629 1.05946 0)
(0.449034 1.07156 -5.35008e-28)
(0.451359 1.08416 -9.74786e-21)
(0.453609 1.0973 1.93943e-20)
(0.455787 1.11102 0)
(0.457902 1.12534 3.18527e-21)
(0.459961 1.14032 -2.66262e-20)
(0.461975 1.15599 -1.52039e-20)
(0.463957 1.17241 1.59881e-20)
(0.465922 1.1896 -1.80883e-20)
(0.467888 1.20763 3.84307e-20)
(0.469878 1.22655 -2.03106e-20)
(0.471914 1.24641 1.78793e-20)
(0.474025 1.26726 1.88226e-20)
(0.283196 0.706354 2.37655e-20)
(0.286669 0.711389 -1.9736e-20)
(0.290184 0.716454 2.69314e-21)
(0.293741 0.721548 4.81251e-29)
(0.297339 0.726672 -1.35042e-20)
(0.300976 0.731826 1.33947e-20)
(0.30465 0.737012 5.19427e-21)
(0.30836 0.742231 6.68444e-29)
(0.312104 0.747483 5.1306e-29)
(0.315881 0.75277 -2.04346e-20)
(0.319688 0.758094 2.02453e-20)
(0.323524 0.763456 -1.0086e-20)
(0.327386 0.768858 -6.01255e-21)
(0.331273 0.774302 1.54451e-20)
(0.335182 0.779791 -1.6136e-20)
(0.339111 0.785327 1.57402e-20)
(0.343058 0.790912 -5.5117e-21)
(0.34702 0.796551 5.47742e-29)
(0.350995 0.802245 5.45024e-21)
(0.35498 0.807999 -5.40055e-21)
(0.358974 0.813817 0)
(0.362972 0.819702 5.11396e-29)
(0.366974 0.82566 -5.1692e-21)
(0.370976 0.831694 1.09998e-20)