/*--------------------------------*- C++ -*----------------------------------*\
  =========                 |
  \\      /  F ield         | OpenFOAM: The Open Source CFD Toolbox
   \\    /   O peration     | Website:  https://openfoam.org
    \\  /    A nd           | Version:  11
     \\/     M anipulation  |
\*---------------------------------------------------------------------------*/
FoamFile
{
    format      ascii;
    class       volVectorField;
    location    "0";
    object      U;
}
// * * * * * * * * * * * * * * * * * * * * * * * * * * * * * * * * * * * * * //

dimensions      [0 1 -1 0 0 0 0];

internalField   nonuniform List<vector> 
4096
(
(0.0199425 0.97469 -4.55707e-21)
(0.0353629 0.977386 8.45462e-22)
(0.0493338 0.979523 9.2241e-22)
(0.0621481 0.981256 -7.65999e-22)
(0.0740195 0.982691 -2.47668e-21)
(0.0851062 0.983905 -2.32189e-21)
(0.095527 0.984948 0)
(0.105373 0.985861 -4.92458e-21)
(0.114715 0.98667 6.73378e-22)
(0.123608 0.987396 1.87964e-21)
(0.132097 0.988055 -1.79647e-21)
(0.140217 0.98866 -1.72018e-21)
(0.147998 0.989219 0)
(0.155462 0.98974 -1.58347e-21)
(0.162631 0.99023 6.99968e-22)
(0.169519 0.990692 -6.21006e-22)
(0.17614 0.991132 -3.49466e-21)
(0.182504 0.991553 1.95948e-21)
(0.18862 0.991956 1.29811e-21)
(0.194496 0.992346 -1.24657e-21)
(0.200136 0.992724 -1.19602e-21)
(0.205544 0.993093 1.14616e-21)
(0.210723 0.993452 1.72353e-21)
(0.215675 0.993806 -2.65377e-21)
(0.2204 0.994154 -6.00987e-22)
(0.224896 0.994497 5.34323e-22)
(0.229163 0.994839 -2.36686e-21)
(0.233198 0.995178 1.35176e-21)
(0.236996 0.995517 -7.96248e-22)
(0.240554 0.995856 -7.43467e-22)
(0.243865 0.996197 6.89334e-22)
(0.246924 0.99654 -1.72289e-21)
(0.249721 0.996887 3.90336e-22)
(0.252248 0.997238 0)
(0.254495 0.997595 -4.54529e-22)
(0.256451 0.997959 -3.89948e-22)
(0.258102 0.998331 3.22425e-22)
(0.259434 0.998711 -2.5162e-22)
(0.260432 0.999103 -1.77162e-22)
(0.261078 0.999506 9.27062e-23)
(0.261351 0.999923 -3.01459e-23)
(0.26123 1.00035 1.41671e-22)
(0.260691 1.0008 -3.21242e-22)
(0.259706 1.00127 5.05447e-24)
(0.258245 1.00176 7.29637e-22)
(0.256274 1.00228 0)
(0.253755 1.00282 6.10675e-22)
(0.250646 1.00339 7.4385e-22)
(0.246897 1.004 -1.81523e-21)
(0.242455 1.00464 2.10971e-21)
(0.237257 1.00534 1.21668e-21)
(0.23123 1.00608 0)
(0.224292 1.00689 1.6126e-21)
(0.216346 1.00777 3.89727e-21)
(0.207276 1.00874 -4.38528e-21)
(0.196946 1.00981 2.39105e-21)
(0.185187 1.01101 2.7215e-21)
(0.171793 1.01238 0)
(0.156498 1.01395 -6.93163e-22)
(0.138954 1.01582 8.84091e-21)
(0.118682 1.01809 1.09429e-21)
(0.0949871 1.02097 -1.12128e-21)
(0.0667904 1.02483 6.6991e-21)
(0.0322711 1.03042 0)
(0.0396534 0.932027 2.85688e-20)
(0.0506236 0.937737 -2.16547e-20)
(0.0614315 0.94255 1.84906e-20)
(0.0719564 0.946661 9.5723e-21)
(0.0821395 0.950218 -8.97593e-21)
(0.0919577 0.953331 -4.97305e-21)
(0.101408 0.956086 1.0487e-20)
(0.110499 0.958551 -4.78103e-21)
(0.119243 0.960777 1.53971e-20)
(0.127656 0.962805 1.16821e-20)
(0.135754 0.964669 -4.19509e-21)
(0.143552 0.966393 1.6439e-21)
(0.151065 0.968001 -9.09454e-21)
(0.158305 0.96951 1.31357e-20)
(0.165282 0.970933 1.47218e-21)
(0.172008 0.972284 1.41904e-21)
(0.178489 0.973573 9.50058e-21)
(0.184734 0.974809 -7.64428e-21)
(0.190747 0.975999 1.26795e-21)
(0.196533 0.97715 1.21952e-21)
(0.202096 0.978269 3.51497e-21)
(0.207438 0.97936 -2.37679e-21)
(0.21256 0.980427 6.65788e-21)
(0.217463 0.981476 -6.98816e-23)
(0.222146 0.98251 2.1651e-21)
(0.226608 0.983534 -1.19157e-22)
(0.230847 0.984549 2.65522e-21)
(0.234858 0.98556 0)
(0.23864 0.98657 7.85095e-22)
(0.242185 0.987582 -2.7085e-22)
(0.245489 0.988598 1.55644e-21)
(0.248544 0.989622 4.02842e-21)
(0.251343 0.990657 -1.34096e-21)
(0.253877 0.991706 1.02047e-21)
(0.256135 0.992772 1.34753e-21)
(0.258106 0.993858 3.8548e-22)
(0.259777 0.994968 -8.39214e-22)
(0.261135 0.996105 1.62953e-21)
(0.262162 0.997274 5.26289e-22)
(0.262843 0.998478 0)
(0.263157 0.999722 7.8274e-23)
(0.263084 1.00101 1.89817e-22)
(0.262599 1.00235 4.68903e-22)
(0.261675 1.00375 -1.25218e-21)
(0.260284 1.00521 -1.10188e-21)
(0.258392 1.00674 0)
(0.255964 1.00835 -3.04971e-21)
(0.252956 1.01006 3.73038e-21)
(0.249325 1.01187 -2.64126e-21)
(0.245017 1.01379 -7.42939e-21)
(0.239972 1.01585 3.73649e-21)
(0.234125 1.01807 0)
(0.227396 1.02046 -4.74129e-21)
(0.219698 1.02306 2.21533e-21)
(0.210926 1.02592 -2.40834e-21)
(0.200959 1.02907 -6.97893e-21)
(0.189653 1.03259 3.4885e-21)
(0.17684 1.03656 -6.77359e-21)
(0.162313 1.0411 -1.01672e-20)
(0.145831 1.0464 -3.84902e-21)
(0.127108 1.0527 -4.37806e-21)
(0.105828 1.06043 -4.98157e-21)
(0.0817055 1.07023 -2.60937e-21)
(0.0547023 1.08322 -3.174e-20)
(0.0594802 0.901156 -2.17429e-20)
(0.0682264 0.907125 0)
(0.0770024 0.912571 1.56564e-20)
(0.0857364 0.917534 -1.87433e-20)
(0.094372 0.922062 1.92945e-20)
(0.102868 0.926201 -2.20567e-20)
(0.111193 0.929999 0)
(0.119329 0.933498 3.38863e-21)
(0.127262 0.936736 1.5025e-20)
(0.134984 0.939747 -2.63454e-21)
(0.142493 0.94256 -2.02134e-20)
(0.149786 0.9452 0)
(0.156864 0.94769 1.43756e-20)
(0.163729 0.950049 -5.15391e-21)
(0.170382 0.952293 5.55028e-21)
(0.176826 0.954438 5.23082e-21)
(0.183062 0.956497 -2.27527e-21)
(0.189094 0.95848 -7.54078e-21)
(0.194921 0.960399 4.67798e-21)
(0.200545 0.962262 7.15285e-21)
(0.205967 0.964077 -1.59299e-20)
(0.211187 0.965852 -6.72841e-21)
(0.216204 0.967594 1.28594e-20)
(0.221016 0.969309 -8.10259e-21)
(0.225623 0.971003 -6.09788e-21)
(0.23002 0.972681 3.85427e-21)
(0.234206 0.974349 -1.7201e-21)
(0.238176 0.976011 -3.25153e-21)
(0.241925 0.977673 -8.15619e-21)
(0.245448 0.979339 3.22155e-21)
(0.248739 0.981014 0)
(0.25179 0.982703 -1.22154e-21)
(0.254594 0.984411 0)
(0.257141 0.986142 -9.9792e-22)
(0.259421 0.987902 -2.6376e-21)
(0.261423 0.989696 0)
(0.263134 0.991529 -6.25357e-22)
(0.264541 0.993408 -4.89057e-22)
(0.265628 0.995338 -3.45629e-22)
(0.266379 0.997326 0)
(0.266774 0.999381 -1.32845e-22)
(0.266794 1.00151 -4.97891e-22)
(0.266414 1.00372 3.15364e-22)
(0.265611 1.00602 0)
(0.264357 1.00843 -3.54016e-21)
(0.26262 1.01095 5.48264e-21)
(0.260366 1.01361 -2.28896e-21)
(0.257558 1.01641 -1.41996e-21)
(0.254152 1.01938 3.5342e-21)
(0.250101 1.02254 2.14266e-21)
(0.245352 1.02591 -9.71113e-21)
(0.239845 1.02952 2.39196e-22)
(0.233513 1.03342 3.03981e-21)
(0.226279 1.03765 0)
(0.218058 1.04226 0)
(0.208752 1.04732 -1.45507e-20)
(0.198251 1.05293 2.27005e-20)
(0.186436 1.0592 5.01083e-22)
(0.17317 1.06628 -8.15791e-21)
(0.158316 1.07436 0)
(0.141739 1.08372 2.71406e-20)
(0.123339 1.09472 -4.26189e-20)
(0.103099 1.10783 3.282e-20)
(0.0811817 1.12367 -2.05789e-20)
(0.0788051 0.876063 0)
(0.0861715 0.881981 0)
(0.0936052 0.88757 -1.59452e-20)
(0.101066 0.892834 1.56359e-20)
(0.108516 0.897787 0)
(0.115926 0.902447 0)
(0.123266 0.906834 0)
(0.130515 0.910969 -2.81213e-20)
(0.137655 0.914874 1.56573e-20)
(0.14467 0.91857 2.17797e-20)
(0.15155 0.922077 -1.53588e-20)
(0.158284 0.925413 0)
(0.164867 0.928598 -3.25335e-28)
(0.171293 0.931646 -5.25979e-21)
(0.177558 0.934573 -1.02543e-20)
(0.183658 0.937392 0)
(0.18959 0.940116 -1.92771e-20)
(0.195352 0.942757 1.36634e-20)
(0.200942 0.945325 1.38214e-20)
(0.206357 0.947829 -1.30508e-20)
(0.211595 0.950279 -4.2671e-21)
(0.216655 0.952684 2.51832e-28)
(0.221532 0.95505 0)
(0.226225 0.957386 -8.25782e-21)
(0.230729 0.959699 1.12607e-20)
(0.235041 0.961995 0)
(0.239156 0.964281 3.29824e-21)
(0.243071 0.966563 3.1221e-21)
(0.246778 0.968848 9.80434e-21)
(0.250273 0.971141 -6.20365e-21)
(0.253549 0.973449 0)
(0.256597 0.975777 4.05327e-21)
(0.25941 0.978133 -5.75218e-21)
(0.261979 0.980523 0)
(0.264294 0.982953 4.72388e-21)
(0.266342 0.985431 -2.53579e-21)
(0.268114 0.987963 0)
(0.269594 0.990558 1.7459e-21)
(0.270769 0.993224 -1.20915e-21)
(0.271622 0.995971 -7.20224e-22)
(0.272135 0.998807 2.13271e-22)
(0.27229 1.00174 2.5219e-22)
(0.272065 1.00479 0)
(0.271437 1.00797 -9.68338e-22)
(0.27038 1.01129 -1.34287e-21)
(0.268866 1.01476 3.45459e-21)
(0.266863 1.01841 -2.23232e-21)
(0.264339 1.02225 2.71507e-21)
(0.261254 1.02632 -9.98523e-21)
(0.257567 1.03064 7.72658e-21)
(0.253233 1.03524 0)
(0.2482 1.04015 5.04859e-21)
(0.242414 1.04544 -1.26571e-20)
(0.235811 1.05114 -5.41653e-22)
(0.228327 1.05733 1.59948e-20)
(0.219887 1.06409 8.2576e-21)
(0.210416 1.07151 0)
(0.199832 1.0797 -1.02977e-20)
(0.188058 1.08883 0)
(0.17502 1.09907 0)
(0.160669 1.11065 0)
(0.144988 1.12385 1.51846e-20)
(0.128028 1.13898 0)
(0.109928 1.15638 1.74892e-20)
(0.0976047 0.854638 0)
(0.104015 0.860454 2.62812e-20)
(0.110498 0.866048 8.59876e-22)
(0.117029 0.871417 -5.38656e-20)
(0.123583 0.876564 4.07541e-20)
(0.13014 0.881494 4.51465e-22)
(0.136677 0.886218 -1.36738e-20)
(0.143177 0.890743 -1.41866e-20)
(0.149622 0.895081 1.37441e-20)
(0.155998 0.899245 -1.92585e-20)
(0.162291 0.903247 8.66173e-21)
(0.16849 0.907099 0)
(0.174587 0.910814 -4.85989e-21)
(0.180571 0.914405 0)
(0.186437 0.917881 -4.28782e-28)
(0.192177 0.921256 0)
(0.197785 0.924539 1.32772e-20)
(0.203257 0.927741 -1.26284e-20)
(0.208587 0.930872 1.28238e-20)
(0.213772 0.93394 -1.62658e-20)
(0.218806 0.936955 -1.22951e-20)
(0.223685 0.939925 1.54575e-20)
(0.228406 0.942858 0)
(0.232962 0.945762 -7.15849e-21)
(0.237351 0.948645 -1.4433e-20)
(0.241566 0.951514 1.02618e-20)
(0.245602 0.954376 -6.25415e-21)
(0.249455 0.957238 0)
(0.253117 0.960107 2.79751e-21)
(0.256583 0.962992 -2.62311e-21)
(0.259844 0.965898 0)
(0.262894 0.968833 0)
(0.265724 0.971805 2.05517e-21)
(0.268325 0.974822 0)
(0.270687 0.97789 0)
(0.2728 0.98102 0)
(0.274651 0.98422 0)
(0.276227 0.987499 0)
(0.277516 0.990868 -2.42768e-21)
(0.278502 0.994338 -4.26001e-22)
(0.279169 0.99792 6.29129e-23)
(0.279498 1.00163 -6.54161e-22)
(0.27947 1.00547 0)
(0.279064 1.00948 9.11437e-22)
(0.278258 1.01365 -2.55402e-21)
(0.277025 1.01802 3.26479e-21)
(0.275339 1.0226 2.10884e-21)
(0.273169 1.02743 5.28581e-21)
(0.270483 1.03251 -3.08667e-21)
(0.267246 1.0379 0)
(0.26342 1.04363 0)
(0.258963 1.04973 1.02727e-20)
(0.25383 1.05626 -1.13914e-20)
(0.247976 1.06328 0)
(0.241349 1.07086 0)
(0.233898 1.07907 0)
(0.225572 1.08801 0)
(0.21632 1.09779 3.14623e-20)
(0.2061 1.10856 -2.37456e-20)
(0.194878 1.12045 0)
(0.182642 1.13367 0)
(0.169408 1.1484 -1.30609e-27)
(0.155231 1.16488 1.42859e-20)
(0.140215 1.18332 -5.42013e-20)
(0.115934 0.835802 -8.39214e-21)
(0.12164 0.841513 -2.24226e-20)
(0.127417 0.847068 2.22432e-20)
(0.133247 0.852463 2.34694e-20)
(0.139114 0.857699 -3.20324e-20)
(0.145002 0.862776 0)
(0.150896 0.867698 -2.45402e-20)
(0.156781 0.872468 2.8466e-20)
(0.162644 0.877094 -2.49231e-20)
(0.168471 0.881581 2.42091e-20)
(0.17425 0.885937 4.44245e-21)
(0.179971 0.89017 0)
(0.185623 0.894288 0)
(0.191198 0.8983 0)
(0.196687 0.902215 4.22617e-21)
(0.202082 0.906041 0)
(0.207376 0.909786 0)
(0.212562 0.91346 1.19517e-20)
(0.217635 0.917071 -2.31664e-20)
(0.222588 0.920627 1.49897e-20)
(0.227416 0.924136 2.2424e-20)
(0.232112 0.927605 -1.07572e-20)
(0.236672 0.931044 -6.91629e-21)
(0.24109 0.934459 3.33585e-21)
(0.24536 0.937859 -7.06913e-21)
(0.249476 0.94125 1.9553e-20)
(0.253434 0.944641 -6.32719e-21)
(0.257225 0.948039 9.19748e-21)
(0.260844 0.951451 -8.48158e-21)
(0.264284 0.954885 4.94808e-21)
(0.267538 0.95835 0)
(0.270597 0.961854 -4.26197e-21)
(0.273454 0.965404 0)
(0.276099 0.969009 -3.50835e-21)
(0.278522 0.97268 0)
(0.280715 0.976424 0)
(0.282665 0.980254 0)
(0.28436 0.984178 -1.7572e-21)
(0.285787 0.98821 0)
(0.286934 0.99236 3.66709e-22)
(0.287783 0.996644 0)
(0.288321 1.00108 -7.88506e-22)
(0.288528 1.00567 3.94495e-21)
(0.288385 1.01045 1.19037e-22)
(0.287874 1.01542 -6.99771e-21)
(0.286971 1.02062 -6.33151e-21)
(0.285653 1.02607 -2.90245e-22)
(0.283894 1.03179 9.51994e-21)
(0.281668 1.03782 0)
(0.278945 1.04418 0)
(0.275694 1.05092 0)
(0.271883 1.05809 8.78308e-21)
(0.267477 1.06572 0)
(0.262441 1.07389 2.36831e-20)
(0.256739 1.08266 -2.77735e-20)
(0.250336 1.09211 3.13124e-20)
(0.243198 1.10232 -1.72243e-20)
(0.235296 1.11339 -1.69589e-20)
(0.226609 1.12546 0)
(0.217125 1.13863 0)
(0.206848 1.15307 0)
(0.195802 1.16893 -1.1763e-20)
(0.184039 1.18638 -4.43934e-20)
(0.171636 1.20558 1.06885e-19)
(0.133855 0.818894 -1.81981e-20)
(0.139025 0.824508 -1.19497e-20)
(0.14426 0.83001 -6.34903e-22)
(0.149548 0.835398 4.75887e-20)
(0.154878 0.840672 8.39187e-21)
(0.160239 0.84583 -3.36975e-20)
(0.165618 0.850873 2.0717e-20)
(0.171005 0.855804 -2.95634e-20)
(0.176387 0.860625 -8.60882e-21)
(0.181755 0.86534 5.13126e-20)
(0.187099 0.869953 -1.35965e-20)
(0.192407 0.87447 7.82834e-21)
(0.197672 0.878896 0)
(0.202884 0.883237 -7.69432e-21)
(0.208035 0.8875 0)
(0.213117 0.891691 -2.95803e-20)
(0.218123 0.895817 1.38241e-20)
(0.223045 0.899885 -1.44786e-20)
(0.227877 0.903902 2.07649e-20)
(0.232613 0.907875 2.81222e-20)
(0.237246 0.911812 -2.69199e-20)
(0.241769 0.915719 -6.57798e-21)
(0.246177 0.919603 6.37994e-21)
(0.250463 0.923473 -2.57366e-20)
(0.254621 0.927336 1.84019e-20)
(0.258646 0.931199 5.71019e-21)
(0.26253 0.935069 0)
(0.266267 0.938955 0)
(0.269851 0.942864 0)
(0.273274 0.946805 3.16162e-21)
(0.276529 0.950786 -7.09937e-21)
(0.279608 0.954815 6.87288e-21)
(0.282504 0.958902 -6.13676e-21)
(0.285206 0.963055 6.60757e-21)
(0.287707 0.967285 5.18987e-21)
(0.289996 0.971603 -1.84668e-21)
(0.292063 0.976019 0)
(0.293897 0.980545 -3.05911e-21)
(0.295486 0.985194 -7.82961e-23)
(0.296817 0.98998 1.99642e-21)
(0.297877 0.994916 0)
(0.298651 1.00002 -3.59916e-22)
(0.299124 1.00531 0)
(0.299278 1.0108 -1.5616e-21)
(0.299098 1.01652 2.21713e-21)
(0.298563 1.02248 8.77544e-21)
(0.297654 1.02872 -7.16981e-21)
(0.296349 1.03525 0)
(0.294626 1.04213 0)
(0.292462 1.04937 -6.15078e-21)
(0.289831 1.05701 7.0889e-21)
(0.28671 1.06511 -1.61678e-20)
(0.283072 1.07372 0)
(0.278891 1.08288 -2.28597e-20)
(0.274143 1.09267 -9.66695e-22)
(0.268804 1.10315 1.5262e-20)
(0.262853 1.11441 1.39503e-20)
(0.256276 1.12654 6.19834e-28)
(0.249062 1.13964 1.99248e-20)
(0.241211 1.15381 -3.00962e-21)
(0.232736 1.16919 2.39694e-20)
(0.223662 1.1859 2.1858e-20)
(0.214034 1.20407 -2.7042e-20)
(0.203912 1.22383 6.76585e-21)
(0.151422 0.80347 2.20935e-20)
(0.156174 0.808995 -1.2836e-20)
(0.160987 0.814442 0)
(0.165851 0.819808 -6.64505e-21)
(0.170758 0.825093 0)
(0.175699 0.830295 -6.81429e-21)
(0.180666 0.835415 -6.87601e-21)
(0.185649 0.840452 2.59562e-20)
(0.19064 0.84541 -1.17015e-20)
(0.19563 0.850289 -2.64502e-20)
(0.200609 0.855093 5.07503e-21)
(0.205571 0.859825 -6.95065e-21)
(0.210506 0.864489 1.98534e-20)
(0.215406 0.869089 -2.53908e-20)
(0.220265 0.873631 3.23232e-20)
(0.225074 0.878118 -1.24611e-20)
(0.229826 0.882557 6.65088e-21)
(0.234515 0.886953 -6.5491e-21)
(0.239133 0.891312 -6.43399e-21)
(0.243675 0.895641 1.29579e-20)
(0.248133 0.899945 -1.83753e-20)
(0.252501 0.904232 -1.26969e-20)
(0.256772 0.908507 -6.45746e-21)
(0.260942 0.912778 5.06064e-21)
(0.265002 0.917052 1.69319e-20)
(0.268947 0.921336 -2.22888e-20)
(0.272771 0.925638 1.08742e-20)
(0.276466 0.929964 0)
(0.280026 0.934325 0)
(0.283445 0.938726 0)
(0.286714 0.943178 -1.7695e-20)
(0.289826 0.947688 1.60921e-20)
(0.292773 0.952268 5.9296e-21)
(0.295548 0.956925 -8.31544e-21)
(0.298141 0.961671 0)
(0.300543 0.966517 -4.74521e-21)
(0.302745 0.971474 -3.59656e-21)
(0.304737 0.976556 4.36005e-21)
(0.306507 0.981774 0)
(0.308044 0.987144 -6.84886e-22)
(0.309337 0.992682 0)
(0.310372 0.998403 -2.88264e-22)
(0.311135 1.00433 -5.89343e-23)
(0.311614 1.01047 5.55543e-21)
(0.311792 1.01686 0)
(0.311654 1.02352 -2.67546e-21)
(0.311182 1.03047 0)
(0.310361 1.03774 8.40883e-21)
(0.309171 1.04537 -9.73849e-21)
(0.307594 1.05339 5.64398e-21)
(0.305611 1.06183 -6.49559e-21)
(0.303204 1.07075 7.39426e-21)
(0.300353 1.08019 -1.83515e-20)
(0.29704 1.09021 3.15239e-20)
(0.293248 1.10086 -2.25795e-20)
(0.288963 1.11221 1.14646e-20)
(0.284172 1.12434 -5.00784e-28)
(0.27887 1.13732 1.37554e-20)
(0.273054 1.15124 0)
(0.266731 1.16621 -1.61469e-20)
(0.259915 1.18232 2.1362e-20)
(0.252633 1.19967 -4.07952e-20)
(0.244922 1.21838 2.49691e-20)
(0.236833 1.23857 -4.94767e-21)
(0.168682 0.789205 0)
(0.173106 0.79465 5.61353e-21)
(0.177584 0.800043 0)
(0.182113 0.805381 0)
(0.186684 0.810662 -5.90764e-21)
(0.191291 0.815887 0)
(0.195927 0.821055 6.04701e-21)
(0.200586 0.826166 0)
(0.205259 0.831221 0)
(0.209939 0.836221 1.72256e-20)
(0.21462 0.841169 -2.80769e-20)
(0.219295 0.846066 1.69875e-20)
(0.223955 0.850916 -1.76754e-20)
(0.228595 0.855722 1.10368e-20)
(0.233207 0.860487 6.09832e-21)
(0.237785 0.865216 0)
(0.242322 0.869913 0)
(0.246811 0.874582 0)
(0.251246 0.87923 5.8145e-21)
(0.255622 0.883861 -1.17306e-20)
(0.25993 0.88848 1.66754e-20)
(0.264166 0.893095 0)
(0.268323 0.89771 5.32758e-21)
(0.272395 0.902332 -5.17393e-21)
(0.276375 0.906969 0)
(0.280258 0.911626 -2.04353e-20)
(0.284037 0.916312 3.43839e-20)
(0.287706 0.921034 -1.41034e-20)
(0.291258 0.925799 1.40084e-20)
(0.294686 0.930616 -1.29011e-20)
(0.297983 0.935494 3.71838e-21)
(0.301143 0.940442 0)
(0.304158 0.945469 -1.09958e-20)
(0.307019 0.950585 1.97697e-20)
(0.30972 0.955801 3.13137e-22)
(0.312251 0.961129 -1.3366e-20)
(0.314605 0.966581 -2.09027e-21)
(0.316771 0.972169 5.22162e-21)
(0.31874 0.977907 1.99548e-21)
(0.320501 0.98381 -2.40861e-21)
(0.322046 0.989895 3.78559e-22)
(0.323361 0.996178 0)
(0.324436 1.00268 1.48579e-21)
(0.325258 1.00941 -6.28394e-21)
(0.325815 1.01641 3.55054e-21)
(0.326094 1.02369 0)
(0.326081 1.03128 0)
(0.325762 1.03921 -7.68223e-21)
(0.325123 1.0475 8.89387e-21)
(0.324149 1.05621 5.1496e-21)
(0.322827 1.06535 -1.26897e-20)
(0.321141 1.07498 1.40752e-20)
(0.31908 1.08514 0)
(0.31663 1.09588 0)
(0.31378 1.10726 -9.3922e-21)
(0.310524 1.11933 -1.03525e-20)
(0.306854 1.13217 -1.13439e-20)
(0.302769 1.14584 0)
(0.298274 1.16043 -1.33967e-20)
(0.293376 1.17602 0)
(0.288094 1.19269 -5.36177e-20)
(0.282451 1.21054 3.96761e-20)
(0.276482 1.22967 -1.75058e-20)
(0.27023 1.25016 -1.84546e-20)
(0.185672 0.775854 -4.02313e-21)
(0.189835 0.781228 -2.4975e-20)
(0.19405 0.786568 -5.02376e-21)
(0.198313 0.791874 -5.11323e-21)
(0.202617 0.797145 5.19417e-21)
(0.206959 0.802379 -5.26607e-21)
(0.211331 0.807576 -5.32849e-21)
(0.215729 0.812737 1.47945e-20)
(0.220146 0.817863 -1.99724e-20)
(0.224577 0.822953 -5.4551e-21)
(0.229016 0.82801 0)
(0.233457 0.833036 -5.48608e-21)
(0.237893 0.838033 -5.48491e-21)
(0.242319 0.843003 -2.13091e-20)
(0.246728 0.84795 1.5385e-20)
(0.251116 0.852876 -5.4131e-21)
(0.255475 0.857786 -2.13141e-20)
(0.2598 0.862684 1.53909e-20)
(0.264084 0.867574 -5.23685e-21)
(0.268323 0.872461 -5.15451e-21)
(0.27251 0.87735 -1.05403e-20)
(0.276639 0.882247 9.94816e-21)
(0.280705 0.887157 1.51904e-20)
(0.284701 0.892085 -2.93411e-20)
(0.288623 0.89704 9.55367e-21)
(0.292463 0.902026 4.40428e-21)
(0.296215 0.907051 -4.23478e-21)
(0.299875 0.912124 9.31268e-21)
(0.303435 0.91725 -3.4183e-21)
(0.306889 0.922439 -2.41109e-20)
(0.310231 0.927699 7.80724e-21)
(0.313454 0.933039 -3.1779e-21)
(0.316551 0.93847 0)
(0.319515 0.944 0)
(0.322338 0.949641 -8.3615e-21)
(0.325014 0.955405 5.04215e-21)
(0.327533 0.961303 -6.24502e-21)
(0.329889 0.967349 9.91486e-21)
(0.332072 0.973557 -4.62384e-21)
(0.334074 0.979941 -6.23765e-22)
(0.335885 0.986519 -2.13364e-22)
(0.337496 0.993307 8.54149e-22)
(0.338897 1.00032 -3.1941e-21)
(0.340079 1.00759 3.37226e-21)
(0.341029 1.01513 -3.33468e-21)
(0.341739 1.02296 2.08571e-21)
(0.342196 1.03112 -2.8915e-21)
(0.34239 1.03962 6.7305e-21)
(0.34231 1.0485 4.01528e-21)
(0.341945 1.0578 9.90028e-21)
(0.341285 1.06755 -1.10963e-20)
(0.340319 1.07779 1.93556e-20)
(0.339039 1.08856 -1.45439e-20)
(0.337437 1.09991 -9.41915e-21)
(0.335506 1.1119 3.54116e-20)
(0.333243 1.12457 4.00465e-20)
(0.330647 1.138 -2.2824e-20)
(0.32772 1.15223 1.11003e-20)
(0.324468 1.16735 1.20088e-20)
(0.320903 1.18343 0)
(0.317043 1.20054 6.17481e-20)
(0.312912 1.21877 -5.75185e-20)
(0.308539 1.23819 1.40635e-20)
(0.303964 1.25891 -1.66462e-21)
(0.202421 0.763225 -2.56163e-20)
(0.206379 0.768534 0)
(0.210386 0.773825 -1.894e-20)
(0.214439 0.779098 -5.27992e-21)
(0.218533 0.784352 4.83755e-20)
(0.222663 0.789586 -4.48313e-20)
(0.226826 0.7948 2.95598e-20)
(0.231017 0.799995 0)
(0.235231 0.805171 1.44146e-20)
(0.239464 0.810329 4.83892e-21)
(0.243709 0.815471 0)
(0.247963 0.820597 2.85112e-20)
(0.25222 0.82571 -8.667e-21)
(0.256474 0.830812 5.23494e-22)
(0.260722 0.835906 2.34788e-20)
(0.264957 0.840994 1.91094e-20)
(0.269174 0.846081 6.10972e-22)
(0.273368 0.851169 0)
(0.277534 0.856263 4.71013e-21)
(0.281666 0.861367 9.28744e-21)
(0.285759 0.866486 4.56624e-21)
(0.289808 0.871624 -9.45199e-21)
(0.293807 0.876787 1.32871e-20)
(0.297751 0.881982 2.63204e-20)
(0.301635 0.887212 -8.67136e-21)
(0.305453 0.892486 0)
(0.309199 0.89781 1.15709e-20)
(0.312868 0.903191 3.69562e-21)
(0.316453 0.908637 1.05634e-20)
(0.31995 0.914156 6.66613e-21)
(0.323353 0.919756 9.39304e-21)
(0.326654 0.925446 8.74349e-21)
(0.329849 0.931236 -9.3099e-21)
(0.332929 0.937136 8.24681e-21)
(0.33589 0.943157 -3.35436e-21)
(0.338724 0.949311 8.43668e-21)
(0.341424 0.955609 1.59538e-21)
(0.343982 0.962065 0)
(0.346393 0.968693 2.83513e-21)
(0.348647 0.975507 -1.61425e-21)
(0.350738 0.982525 2.23208e-21)
(0.352656 0.989763 3.17996e-22)
(0.354395 0.99724 1.74033e-21)
(0.355945 1.00498 -5.00338e-21)
(0.357298 1.01299 -9.03136e-21)
(0.358446 1.02131 5.74379e-21)
(0.35938 1.02996 2.52976e-21)
(0.360091 1.03897 -1.22221e-20)
(0.360572 1.04837 3.96222e-21)
(0.360814 1.05818 -1.23769e-20)
(0.36081 1.06844 -9.34138e-21)
(0.360554 1.0792 -1.70575e-20)
(0.36004 1.09049 -2.6042e-20)
(0.359263 1.10236 -7.48186e-21)
(0.358221 1.11485 -8.28778e-21)
(0.356914 1.12802 1.25801e-20)
(0.355342 1.14191 -3.88591e-20)
(0.353513 1.1566 1.35257e-20)
(0.351433 1.17214 -5.05078e-20)
(0.349116 1.1886 3.86135e-21)
(0.34658 1.20604 -3.71215e-20)
(0.343847 1.22455 -3.95003e-20)
(0.340947 1.24419 -2.78804e-20)
(0.337914 1.26505 3.78587e-20)
(0.218953 0.751163 5.47303e-29)
(0.222751 0.756412 -7.66849e-21)
(0.226595 0.761656 -7.82447e-21)
(0.230484 0.766895 -1.3233e-20)
(0.234412 0.772128 1.29341e-20)
(0.238378 0.777356 2.22488e-20)
(0.242378 0.782578 -3.63961e-20)
(0.246407 0.787794 2.24418e-20)
(0.250462 0.793006 1.50973e-20)
(0.254538 0.798214 7.79167e-22)
(0.258633 0.80342 -5.65818e-20)
(0.26274 0.808624 1.51984e-20)
(0.266857 0.813829 2.49587e-20)
(0.270979 0.819037 -7.88132e-21)
(0.2751 0.82425 -4.19278e-20)
(0.279218 0.829472 2.55095e-20)
(0.283326 0.834704 -2.47483e-20)
(0.287422 0.83995 0)
(0.291498 0.845215 1.27942e-20)
(0.295553 0.850502 -2.06736e-20)
(0.299579 0.855816 -8.22081e-21)
(0.303573 0.86116 0)
(0.30753 0.866541 -1.24111e-20)
(0.311445 0.871964 -8.12105e-21)
(0.315313 0.877434 1.15988e-20)
(0.319129 0.882958 0)
(0.322887 0.888542 -7.00023e-21)
(0.326584 0.894193 6.71598e-21)
(0.330213 0.899919 -6.40693e-21)
(0.33377 0.905727 -1.02161e-20)
(0.337249 0.911626 3.6638e-21)
(0.340644 0.917625 -2.92772e-29)
(0.34395 0.923733 0)
(0.347162 0.929961 4.46098e-21)
(0.350273 0.936318 -3.98512e-21)
(0.353278 0.942817 0)
(0.35617 0.94947 -2.38092e-21)
(0.358944 0.956289 4.17506e-21)
(0.361592 0.963289 1.47071e-28)
(0.364109 0.970484 0)
(0.366488 0.977891 -2.26258e-30)
(0.368723 0.985525 2.94953e-22)
(0.370807 0.993407 -1.05804e-21)
(0.372732 1.00155 3.66852e-21)
(0.374493 1.00999 -5.20633e-21)
(0.376082 1.01874 0)
(0.377494 1.02782 2.68351e-29)
(0.378722 1.03726 -5.88525e-21)
(0.37976 1.04709 6.65526e-21)
(0.380602 1.05734 -6.71043e-28)
(0.381244 1.06805 8.73761e-28)
(0.381683 1.07925 -1.08091e-20)
(0.381914 1.09097 -4.55951e-22)
(0.381937 1.10326 1.3361e-20)
(0.381751 1.11617 -1.37529e-20)
(0.381358 1.12974 1.50987e-20)
(0.380763 1.14401 9.5728e-29)
(0.379973 1.15906 -1.78789e-20)
(0.378998 1.17492 0)
(0.377851 1.19167 2.07251e-20)
(0.376551 1.20936 2.03967e-28)
(0.37512 1.22807 5.29975e-20)
(0.373585 1.24785 -3.04063e-20)
(0.371979 1.26878 0)
(0.235285 0.739542 -2.73141e-20)
(0.238959 0.744734 6.22389e-21)
(0.242679 0.749933 2.46273e-20)
(0.246441 0.755137 0)
(0.250243 0.760347 7.184e-21)
(0.254083 0.765563 -1.97206e-20)
(0.257957 0.770785 1.21129e-20)
(0.261862 0.776013 0)
(0.265796 0.781249 0)
(0.269754 0.786493 0)
(0.273733 0.791747 7.68934e-21)
(0.277731 0.797011 -2.19737e-20)
(0.281742 0.802289 4.37537e-20)
(0.285764 0.807581 -4.42022e-20)
(0.289792 0.81289 2.96775e-20)
(0.293824 0.818219 2.28022e-20)
(0.297854 0.823571 -2.98551e-20)
(0.301879 0.828949 2.29519e-20)
(0.305895 0.834356 7.60378e-22)
(0.309898 0.839796 -2.21346e-20)
(0.313883 0.845273 0)
(0.317847 0.850793 0)
(0.321784 0.856359 0)
(0.325692 0.861977 0)
(0.329565 0.867652 0)
(0.333399 0.873391 -1.06138e-20)
(0.337189 0.8792 9.99626e-21)
(0.340931 0.885085 -6.08825e-21)
(0.344621 0.891054 5.81462e-21)
(0.348253 0.897114 -5.51715e-21)
(0.351824 0.903275 0)
(0.355327 0.909544 -1.317e-20)
(0.358759 0.91593 7.49355e-21)
(0.362115 0.922444 -4.07275e-21)
(0.365389 0.929097 3.64365e-21)
(0.368576 0.935899 5.70359e-21)
(0.371671 0.942862 -1.22884e-20)
(0.374669 0.95 3.84312e-21)
(0.377565 0.957325 -1.62559e-21)
(0.380353 0.964853 2.9812e-21)
(0.383028 0.972599 -1.17984e-21)
(0.385584 0.98058 0)
(0.388017 0.988814 2.73875e-21)
(0.390321 0.997319 -3.15072e-21)
(0.392491 1.00612 2.42799e-21)
(0.394523 1.01523 -9.76133e-21)
(0.39641 1.02468 1.21228e-20)
(0.398149 1.03449 0)
(0.399737 1.0447 1.82709e-20)
(0.401169 1.05532 -7.15848e-21)
(0.402443 1.0664 2.6456e-28)
(0.403557 1.07796 0)
(0.404511 1.09004 1.00589e-20)
(0.405305 1.10268 0)
(0.405941 1.11593 2.63386e-20)
(0.406423 1.12981 -1.29785e-20)
(0.406757 1.14439 -1.75041e-21)
(0.406952 1.15971 3.49436e-20)
(0.407019 1.17582 -1.98985e-20)
(0.406973 1.19278 0)
(0.40683 1.21065 3.96581e-20)
(0.406614 1.22948 0)
(0.40635 1.24934 2.22987e-20)
(0.406069 1.2703 0)
(0.25143 0.728256 5.89007e-21)
(0.255012 0.733394 0)
(0.258638 0.738548 1.62139e-20)
(0.262306 0.743717 -1.61239e-20)
(0.266014 0.748901 0)
(0.26976 0.7541 0)
(0.273541 0.759316 -1.79041e-20)
(0.277355 0.764548 1.76934e-20)
(0.281199 0.769798 0)
(0.285071 0.775066 -6.79074e-21)
(0.288967 0.780354 -1.92902e-20)
(0.292884 0.785664 1.89351e-20)
(0.296821 0.790997 -1.98258e-20)
(0.300773 0.796355 1.93897e-20)
(0.304737 0.801741 2.02312e-20)
(0.30871 0.807156 -4.00874e-20)
(0.312689 0.812605 4.71922e-20)
(0.316671 0.81809 -1.98716e-20)
(0.320651 0.823614 0)
(0.324627 0.829181 6.72659e-21)
(0.328594 0.834796 0)
(0.33255 0.840461 0)
(0.33649 0.846183 -1.37183e-20)
(0.34041 0.851967 1.9204e-20)
(0.344308 0.857816 0)
(0.348178 0.863739 -9.57914e-21)
(0.352018 0.869739 9.03083e-21)
(0.355823 0.875825 9.07622e-21)
(0.359589 0.882004 -1.37292e-20)
(0.363312 0.888281 8.40881e-21)
(0.366989 0.894667 2.7403e-22)
(0.370614 0.901169 -7.29747e-21)
(0.374184 0.907797 0)
(0.377695 0.914559 0)
(0.381142 0.921467 -6.64081e-21)
(0.384522 0.928532 5.20629e-21)
(0.387829 0.935764 -8.77323e-21)
(0.39106 0.943178 -1.27953e-22)
(0.39421 0.950785 2.67233e-21)
(0.397275 0.958601 -9.68987e-22)
(0.400251 0.96664 0)
(0.403133 0.974919 0)
(0.405918 0.983454 0)
(0.408601 0.992266 2.9034e-21)
(0.41118 1.00137 -4.16738e-21)
(0.41365 1.0108 -2.94578e-21)
(0.416008 1.02056 7.21376e-21)
(0.418251 1.03069 -9.23724e-21)
(0.420378 1.0412 1.07068e-20)
(0.422387 1.05214 0)
(0.424276 1.06352 7.10845e-21)
(0.426046 1.07538 -2.55619e-20)
(0.427698 1.08775 1.91635e-20)
(0.429234 1.10068 0)
(0.430658 1.11418 0)
(0.431976 1.12832 2.43524e-20)
(0.433194 1.14313 0)
(0.434323 1.15866 0)
(0.435374 1.17495 0)
(0.436362 1.19206 0)
(0.437307 1.21003 -1.77591e-20)
(0.438228 1.22893 0)
(0.439151 1.24882 0)
(0.440107 1.26974 0)
(0.267398 0.717216 -1.04627e-20)
(0.270914 0.722303 -5.34772e-21)
(0.274473 0.727412 5.45884e-21)
(0.278074 0.732544 9.23268e-21)
(0.281715 0.737699 -1.46953e-20)
(0.285395 0.742878 0)
(0.289111 0.748082 -5.84048e-21)
(0.292861 0.75331 -5.91753e-21)
(0.296643 0.758565 -2.2575e-20)
(0.300455 0.763847 2.23937e-20)
(0.304295 0.769158 -6.09598e-21)
(0.30816 0.7745 0)
(0.312048 0.779874 0)
(0.315956 0.785282 1.17049e-20)
(0.319881 0.790727 -4.17314e-20)
(0.323821 0.796211 3.58249e-20)
(0.327774 0.801737 -2.38848e-20)
(0.331735 0.807308 -6.13564e-21)
(0.335702 0.812927 -6.09036e-21)
(0.339673 0.818598 -6.03073e-21)
(0.343644 0.824325 0)
(0.347612 0.830112 -5.86623e-21)
(0.351574 0.835964 -2.385e-20)
(0.355526 0.841885 3.51499e-20)
(0.359467 0.847881 -4.01071e-20)
(0.363391 0.853958 1.66814e-20)
(0.367296 0.86012 0)
(0.371179 0.866376 0)
(0.375036 0.872732 -4.75553e-21)
(0.378864 0.879195 4.52084e-21)
(0.38266 0.885772 -1.15128e-20)
(0.386419 0.892473 2.62356e-21)
(0.390139 0.899306 0)
(0.393816 0.906281 0)
(0.397446 0.913407 3.01871e-21)
(0.401026 0.920696 -2.64734e-21)
(0.404553 0.928159 4.0725e-21)
(0.408023 0.935808 -8.39458e-21)
(0.411433 0.943656 1.07837e-21)
(0.414779 0.951716 -2.57698e-21)
(0.418059 0.960005 7.09897e-22)
(0.421269 0.968536 -2.83971e-22)
(0.424406 0.977328 1.33738e-21)
(0.427468 0.986398 0)
(0.430451 0.995765 1.93567e-21)
(0.433355 1.00545 -5.23268e-21)
(0.436177 1.01547 1.31747e-20)
(0.438915 1.02586 -1.62763e-20)
(0.44157 1.03663 9.61284e-21)
(0.44414 1.04782 0)
(0.446627 1.05945 0)
(0.449032 1.07155 -5.34768e-28)
(0.451357 1.08416 -9.75258e-21)
(0.453606 1.0973 1.93942e-20)
(0.455785 1.11101 0)
(0.457899 1.12534 3.19512e-21)
(0.459958 1.14032 -2.66259e-20)
(0.461972 1.15599 -1.52037e-20)
(0.463954 1.1724 1.59881e-20)
(0.465919 1.1896 -1.80884e-20)
(0.467886 1.20763 3.84317e-20)
(0.469875 1.22655 -2.03117e-20)
(0.471911 1.2464 1.78732e-20)
(0.474023 1.26726 1.88163e-20)
(0.283194 0.706347 2.37685e-20)
(0.286666 0.711382 -1.97307e-20)
(0.290181 0.716447 2.68702e-21)
(0.293738 0.721541 4.81436e-29)
(0.297336 0.726665 -1.35041e-20)
(0.300973 0.731819 1.33945e-20)
(0.304647 0.737005 5.19722e-21)
(0.308357 0.742224 6.68729e-29)
(0.312101 0.747476 5.13268e-29)
(0.315878 0.752763 -2.04377e-20)
(0.319685 0.758087 2.02481e-20)
(0.323521 0.763449 -1.00829e-20)
(0.327383 0.768851 -6.01591e-21)
(0.33127 0.774295 1.5445e-20)
(0.335179 0.779784 -1.61359e-20)
(0.339108 0.785319 1.57401e-20)
(0.343054 0.790905 -5.51493e-21)
(0.347016 0.796543 5.47989e-29)
(0.350991 0.802238 5.45351e-21)
(0.354977 0.807992 -5.40384e-21)
(0.35897 0.81381 0)
(0.362969 0.819695 5.11627e-29)
(0.366971 0.825652 -5.17256e-21)
(0.370972 0.831687 1.09967e-20)