/*--------------------------------*- C++ -*----------------------------------*\
| =========                 |                                                 |
| \\      /  F ield         | OpenFOAM: The Open Source CFD Toolbox           |
|  \\    /   O peration     | Version:  2.2.1                                 |
|   \\  /    A nd           | Web:      www.OpenFOAM.org                      |
|    \\/     M anipulation  |                                                 |
\*---------------------------------------------------------------------------*/
FoamFile
{
    version     2.0;
    format      ascii;
    class       volVectorField;
    object      U;
}
// * * * * * * * * * * * * * * * * * * * * * * * * * * * * * * * * * * * * * //

dimensions      [0 1 -1 0 0 0 0];

internalField   uniform (0 0 -1);

boundaryField
{
    rotor
    {
//type rotatingWallVelocity;
//origin (0 0 0);
//axis (0 0 1);
//omega 1;
      type            fixedValue;
//        value           uniform (0 0 1);

 value           nonuniform List<vector> 
4560
(
(-2.029403755830014371e-18 7.637964394084838238e-02 1.000000000000000000e+00)
(-8.274283981011187894e-02 1.588810593567193674e-01 1.000000000000000000e+00)
(-1.784828036073216884e-01 2.540585677806681542e-01 1.000000000000000000e+00)
(-2.875132773243910256e-01 3.620474985496123788e-01 1.000000000000000000e+00)
(-4.085473938557766527e-01 4.813367954407914984e-01 1.000000000000000000e+00)
(-5.372901284379908438e-01 6.073119590175137805e-01 1.000000000000000000e+00)
(-6.639861105526335683e-01 7.297786085981188275e-01 1.000000000000000000e+00)
(-7.692890757156336523e-01 8.287713286452668138e-01 1.000000000000000000e+00)
(-8.173565412168521949e-01 8.675933997447394797e-01 1.000000000000000000e+00)
(-7.449701867490658991e-01 7.818644413711034469e-01 1.000000000000000000e+00)
(-6.131094056165411477e-01 6.378278696769948963e-01 1.000000000000000000e+00)
(-5.077385877448876705e-01 5.245345566712759089e-01 1.000000000000000000e+00)
(-4.225906044821994834e-01 4.341318318454653880e-01 1.000000000000000000e+00)
(-3.531645043856797561e-01 3.611667142122789720e-01 1.000000000000000000e+00)
(-2.961359672609297777e-01 3.017232227586763016e-01 1.000000000000000000e+00)
(-2.490041400021918427e-01 2.529272043178071860e-01 1.000000000000000000e+00)
(-2.098550464479843058e-01 2.126212945454701853e-01 1.000000000000000000e+00)
(-1.772001445090492788e-01 1.791584230706133041e-01 1.000000000000000000e+00)
(-1.498667421998031157e-01 1.512558770624661542e-01 1.000000000000000000e+00)
(-1.269197425377025790e-01 1.279077494113694535e-01 1.000000000000000000e+00)
(-1.076082910896503930e-01 1.083114504591736055e-01 1.000000000000000000e+00)
(-9.132230270502861291e-02 9.182298884272446782e-02 1.000000000000000000e+00)
(-7.756381126686409666e-02 7.792026077910048365e-02 1.000000000000000000e+00)
(-6.592325915888420929e-02 6.617688922541539731e-02 1.000000000000000000e+00)
(-5.606236222267819286e-02 5.624256446211430699e-02 1.000000000000000000e+00)
(-4.770019333874705308e-02 4.782770165216292807e-02 1.000000000000000000e+00)
(-4.060237393200900879e-02 4.069260478269591530e-02 1.000000000000000000e+00)
(-3.457350269007112425e-02 3.463715221389843113e-02 1.000000000000000000e+00)
(-2.944922507423512748e-02 2.949364488655720901e-02 1.000000000000000000e+00)
(-2.509141009404704248e-02 2.512226575633565162e-02 1.000000000000000000e+00)
(8.274283981011187894e-02 1.588810593567193674e-01 1.000000000000000000e+00)
(-1.470226459249638740e-18 2.408594134976812795e-01 1.000000000000000000e+00)
(-9.604505139844377037e-02 3.351237183574354295e-01 1.000000000000000000e+00)
(-2.058526915437345894e-01 4.416305842368583590e-01 1.000000000000000000e+00)
(-3.283766138479451979e-01 5.586210177743340388e-01 1.000000000000000000e+00)
(-4.596644102868038817e-01 6.811413241206571989e-01 1.000000000000000000e+00)
(-5.904456475289274753e-01 7.985174010399743727e-01 1.000000000000000000e+00)
(-7.020581649855986983e-01 8.901344858010584726e-01 1.000000000000000000e+00)
(-7.596260297854396937e-01 9.183954622021031078e-01 1.000000000000000000e+00)
(-7.014464840385887801e-01 8.179601337118092008e-01 1.000000000000000000e+00)
(-5.844132367187969690e-01 6.626123560367604970e-01 1.000000000000000000e+00)
(-4.885072658620824293e-01 5.417060239357115448e-01 1.000000000000000000e+00)
(-4.095393533399988018e-01 4.461201397281132630e-01 1.000000000000000000e+00)
(-3.442174384249248043e-01 3.695906126249903223e-01 1.000000000000000000e+00)
(-2.899513407029000178e-01 3.076729833091926269e-01 1.000000000000000000e+00)
(-2.447035425261642749e-01 2.571511471098213986e-01 1.000000000000000000e+00)
(-2.068516154989331057e-01 2.156308250921602498e-01 1.000000000000000000e+00)
(-1.750945997185655023e-01 1.813096439955871608e-01 1.000000000000000000e+00)
(-1.483875796696167426e-01 1.527978224517664296e-01 1.000000000000000000e+00)
(-1.258798290142962573e-01 1.290155568305108857e-01 1.000000000000000000e+00)
(-1.068769408606241866e-01 1.091089185147233881e-01 1.000000000000000000e+00)
(-9.080855612280301636e-02 9.239801546998403781e-02 1.000000000000000000e+00)
(-7.720367901560945545e-02 7.833548071000277779e-02 1.000000000000000000e+00)
(-6.567182074730339159e-02 6.647707767862262584e-02 1.000000000000000000e+00)
(-5.588765959047919951e-02 5.645981206025196819e-02 1.000000000000000000e+00)
(-4.757967249236858681e-02 4.798543815139302143e-02 1.000000000000000000e+00)
(-4.052033098609243017e-02 4.080694667651692253e-02 1.000000000000000000e+00)
(-3.451804399424181213e-02 3.471987061746420467e-02 1.000000000000000000e+00)
(-2.941253370197979486e-02 2.955367906165385847e-02 1.000000000000000000e+00)
(-2.506780160309424188e-02 2.516585818264531482e-02 1.000000000000000000e+00)
(1.784828036073216884e-01 2.540585677806681542e-01 1.000000000000000000e+00)
(9.604505139844377037e-02 3.351237183574354295e-01 1.000000000000000000e+00)
(-0.000000000000000000e+00 4.279654751229314269e-01 1.000000000000000000e+00)
(-1.102999657375210302e-01 5.323258723041063289e-01 1.000000000000000000e+00)
(-2.340796980361060653e-01 6.461468735172661848e-01 1.000000000000000000e+00)
(-3.677751768836998725e-01 7.640582820581275358e-01 1.000000000000000000e+00)
(-5.026699593274647215e-01 8.748200751535158970e-01 1.000000000000000000e+00)
(-6.208878073985875101e-01 9.570356725166625500e-01 1.000000000000000000e+00)
(-6.886628226529977193e-01 9.720436426158408638e-01 1.000000000000000000e+00)
(-6.464363978398143251e-01 8.539306985971187869e-01 1.000000000000000000e+00)
(-5.484206374741812384e-01 6.882821592722270232e-01 1.000000000000000000e+00)
(-4.645756821756412136e-01 5.599883153443567796e-01 1.000000000000000000e+00)
(-3.934123974722860129e-01 4.591486232649912846e-01 1.000000000000000000e+00)
(-3.332341817850469345e-01 3.788853116006177801e-01 1.000000000000000000e+00)
(-2.824058935882275412e-01 3.143198858587064604e-01 1.000000000000000000e+00)
(-2.394857221332540309e-01 2.619119516879335197e-01 1.000000000000000000e+00)
(-2.032219588134434041e-01 2.190488484052383888e-01 1.000000000000000000e+00)
(-1.725616654693472585e-01 1.837669759588565210e-01 1.000000000000000000e+00)
(-1.466144142153967267e-01 1.545681401797335541e-01 1.000000000000000000e+00)
(-1.246365645154069723e-01 1.302921732335795557e-01 1.000000000000000000e+00)
(-1.060048871324946879e-01 1.100308992020647691e-01 1.000000000000000000e+00)
(-9.019722902272293841e-02 9.306460916928731286e-02 1.000000000000000000e+00)
(-7.677609567298422644e-02 7.881800664187769978e-02 1.000000000000000000e+00)
(-6.537365812691110778e-02 6.682657103181899316e-02 1.000000000000000000e+00)
(-5.568082273653545550e-02 5.671313273658756815e-02 1.000000000000000000e+00)
(-4.743729450349230131e-02 4.816899981779002721e-02 1.000000000000000000e+00)
(-4.042292453350913167e-02 4.094014788568893504e-02 1.000000000000000000e+00)
(-3.445264627256547363e-02 3.481657650493510947e-02 1.000000000000000000e+00)
(-2.936933149393647705e-02 2.962407578877482642e-02 1.000000000000000000e+00)
(-2.503996946937972479e-02 2.521700577878738941e-02 1.000000000000000000e+00)
(2.875132773243910256e-01 3.620474985496123788e-01 1.000000000000000000e+00)
(2.058526915437345894e-01 4.416305842368583590e-01 1.000000000000000000e+00)
(1.102999657375210302e-01 5.323258723041063289e-01 1.000000000000000000e+00)
(1.498530938465408183e-18 6.336095089860925844e-01 1.000000000000000000e+00)
(-1.245759337411417311e-01 7.430622836577426282e-01 1.000000000000000000e+00)
(-2.602999879528185567e-01 8.548120152817750839e-01 1.000000000000000000e+00)
(-3.990870967715444695e-01 9.569347420832254869e-01 1.000000000000000000e+00)
(-5.239574653226837242e-01 1.027101723540995604e+00 1.000000000000000000e+00)
(-6.024203757914382562e-01 1.025378557753178432e+00 1.000000000000000000e+00)
(-5.782241773833618481e-01 8.867198401400181451e-01 1.000000000000000000e+00)
(-5.037616262933155564e-01 7.133582283134353164e-01 1.000000000000000000e+00)
(-4.349498414809180868e-01 5.786881373232981574e-01 1.000000000000000000e+00)
(-3.735289689900831434e-01 4.729067450328698907e-01 1.000000000000000000e+00)
(-3.197539096572565853e-01 3.889337533672056479e-01 1.000000000000000000e+00)
(-2.731905499716458241e-01 3.216295711338128527e-01 1.000000000000000000e+00)
(-2.331398648224021763e-01 2.672178367579988167e-01 1.000000000000000000e+00)
(-1.988285406849352177e-01 2.228963796909506911e-01 1.000000000000000000e+00)
(-1.695057589537997955e-01 1.865558444514546776e-01 1.000000000000000000e+00)
(-1.444825112006982715e-01 1.565896391166182455e-01 1.000000000000000000e+00)
(-1.231464406838982534e-01 1.317577330075228870e-01 1.000000000000000000e+00)
(-1.049625892943687050e-01 1.110937301889195761e-01 1.000000000000000000e+00)
(-8.946848052131413376e-02 9.383579578056228110e-02 1.000000000000000000e+00)
(-7.626728037984260855e-02 7.937754760961758527e-02 1.000000000000000000e+00)
(-6.501954333426489263e-02 6.723277334576840958e-02 1.000000000000000000e+00)
(-5.543549921635937405e-02 5.700811210081555697e-02 1.000000000000000000e+00)
(-4.726858342639492921e-02 4.838336120538529184e-02 1.000000000000000000e+00)
(-4.030789978445505767e-02 4.109590106852954033e-02 1.000000000000000000e+00)
(-3.437528888061826271e-02 3.492977501405242907e-02 1.000000000000000000e+00)
(-2.931834608547160756e-02 2.970636617415054956e-02 1.000000000000000000e+00)
(-2.500724231056826105e-02 2.527672337411166620e-02 1.000000000000000000e+00)
(4.085473938557766527e-01 4.813367954407914984e-01 1.000000000000000000e+00)
(3.283766138479451979e-01 5.586210177743340388e-01 1.000000000000000000e+00)
(2.340796980361060653e-01 6.461468735172661848e-01 1.000000000000000000e+00)
(1.245759337411417311e-01 7.430622836577426282e-01 1.000000000000000000e+00)
(2.082997141785231028e-18 8.465016198781941670e-01 1.000000000000000000e+00)
(-1.370101467438695764e-01 9.499919619846799446e-01 1.000000000000000000e+00)
(-2.790768391432665863e-01 1.040781546135543856e+00 1.000000000000000000e+00)
(-4.102455081965480366e-01 1.095419054433055317e+00 1.000000000000000000e+00)
(-4.994742751870858699e-01 1.072454486107829119e+00 1.000000000000000000e+00)
(-4.960332133435355062e-01 9.119875990659624954e-01 1.000000000000000000e+00)
(-4.493180778924140140e-01 7.355596175203102938e-01 1.000000000000000000e+00)
(-3.986546650695165228e-01 5.966505012460506796e-01 1.000000000000000000e+00)
(-3.491468305702725705e-01 4.868343373695462883e-01 1.000000000000000000e+00)
(-3.032465723811934022e-01 3.994809039711315624e-01 1.000000000000000000e+00)
(-2.619349548757285429e-01 3.294995457812815998e-01 1.000000000000000000e+00)
(-2.254150892299331410e-01 2.730390112677240078e-01 1.000000000000000000e+00)
(-1.934984090126420087e-01 2.271777093662762370e-01 1.000000000000000000e+00)
(-1.658122841388265656e-01 1.896937051694286003e-01 1.000000000000000000e+00)
(-1.419145188450510742e-01 1.588829871182909081e-01 1.000000000000000000e+00)
(-1.213567925902049177e-01 1.334317760730824864e-01 1.000000000000000000e+00)
(-1.037140776407132758e-01 1.123142127313436073e-01 1.000000000000000000e+00)
(-8.859766645766850579e-02 9.472483956557761764e-02 1.000000000000000000e+00)
(-7.566068804367692691e-02 8.002508446079718840e-02 1.000000000000000000e+00)
(-6.459812900713529649e-02 6.770418507063465097e-02 1.000000000000000000e+00)
(-5.514411093017351773e-02 5.735124196186944245e-02 1.000000000000000000e+00)
(-4.706836831546160754e-02 4.863287974918623080e-02 1.000000000000000000e+00)
(-4.017162213297958973e-02 4.127748547701288323e-02 1.000000000000000000e+00)
(-3.428384058749852498e-02 3.506214034050978562e-02 1.000000000000000000e+00)
(-2.925791963342559004e-02 2.980252937017513135e-02 1.000000000000000000e+00)
(-2.496844172160213315e-02 2.534681975722042832e-02 1.000000000000000000e+00)
(5.372901284379908438e-01 6.073119590175137805e-01 1.000000000000000000e+00)
(4.596644102868038817e-01 6.811413241206571989e-01 1.000000000000000000e+00)
(3.677751768836998725e-01 7.640582820581275358e-01 1.000000000000000000e+00)
(2.602999879528185567e-01 8.548120152817750839e-01 1.000000000000000000e+00)
(1.370101467438695764e-01 9.499919619846799446e-01 1.000000000000000000e+00)
(1.400662557682399169e-18 1.042384900219967880e+00 1.000000000000000000e+00)
(-1.441471833554222037e-01 1.118242226820018947e+00 1.000000000000000000e+00)
(-2.806247567967761758e-01 1.152764474991394783e+00 1.000000000000000000e+00)
(-3.800465815193577734e-01 1.102678499392101275e+00 1.000000000000000000e+00)
(-4.009086026909985390e-01 9.243882659226332343e-01 1.000000000000000000e+00)
(-3.846750468276763923e-01 7.517435288813787420e-01 1.000000000000000000e+00)
(-3.549221364876197216e-01 6.121420568385969041e-01 1.000000000000000000e+00)
(-3.195425977535591433e-01 5.000252499816653096e-01 1.000000000000000000e+00)
(-2.831418592340493312e-01 4.100694752872203752e-01 1.000000000000000000e+00)
(-2.482199293589054112e-01 3.377186749984246172e-01 1.000000000000000000e+00)
(-2.160149729769892391e-01 2.792888777991235916e-01 1.000000000000000000e+00)
(-1.870267594953837209e-01 2.318676034431060851e-01 1.000000000000000000e+00)
(-1.613395307434472847e-01 1.931822121315937557e-01 1.000000000000000000e+00)
(-1.388137822575964964e-01 1.614623423726987972e-01 1.000000000000000000e+00)
(-1.192024728681164852e-01 1.353309599889044590e-01 1.000000000000000000e+00)
(-1.022152072042620818e-01 1.137084241806105150e-01 1.000000000000000000e+00)
(-8.755480826469243250e-02 9.574618551913963160e-02 1.000000000000000000e+00)
(-7.493583701384526341e-02 8.077211646212750784e-02 1.000000000000000000e+00)
(-6.409568841066798361e-02 6.824996075159166231e-02 1.000000000000000000e+00)
(-5.479722536570066915e-02 5.774963588195345526e-02 1.000000000000000000e+00)
(-4.683020844051156983e-02 4.892370749943428937e-02 1.000000000000000000e+00)
(-4.000988554233788491e-02 4.148954197036754110e-02 1.000000000000000000e+00)
(-3.417536691955799788e-02 3.521648217273012221e-02 1.000000000000000000e+00)
(-2.918645367568509924e-02 2.991514990982404795e-02 1.000000000000000000e+00)
(-2.492245153022234344e-02 2.542885905493951285e-02 1.000000000000000000e+00)
(6.639861105526335683e-01 7.297786085981188275e-01 1.000000000000000000e+00)
(5.904456475289274753e-01 7.985174010399743727e-01 1.000000000000000000e+00)
(5.026699593274647215e-01 8.748200751535158970e-01 1.000000000000000000e+00)
(3.990870967715444695e-01 9.569347420832254869e-01 1.000000000000000000e+00)
(2.790768391432665863e-01 1.040781546135543856e+00 1.000000000000000000e+00)
(1.441471833554222037e-01 1.118242226820018947e+00 1.000000000000000000e+00)
(-1.778952720059930929e-18 1.174358137011809466e+00 1.000000000000000000e+00)
(-1.398433675891389560e-01 1.182696669293451963e+00 1.000000000000000000e+00)
(-2.478652584449907437e-01 1.097795971475926002e+00 1.000000000000000000e+00)
(-2.965358646665957609e-01 9.185108842984777144e-01 1.000000000000000000e+00)
(-3.107024069628587237e-01 7.581121810209930922e-01 1.000000000000000000e+00)
(-3.035131498685032514e-01 6.228229696809678417e-01 1.000000000000000000e+00)
(-2.841651406678337710e-01 5.111388737878798105e-01 1.000000000000000000e+00)
(-2.588881317441960594e-01 4.199768960133403173e-01 1.000000000000000000e+00)
(-2.315963158874293215e-01 3.459178965735419387e-01 1.000000000000000000e+00)
(-2.046035672789595639e-01 2.857924325652193009e-01 1.000000000000000000e+00)
(-1.791729753211115106e-01 2.368930527438036227e-01 1.000000000000000000e+00)
(-1.559192672990448725e-01 1.969994683546653913e-01 1.000000000000000000e+00)
(-1.350640714722511071e-01 1.643297097694753073e-01 1.000000000000000000e+00)
(-1.166031900688231232e-01 1.374669656147023689e-01 1.000000000000000000e+00)
(-1.004114557763483712e-01 1.152908321920617651e-01 1.000000000000000000e+00)
(-8.630276505225699391e-02 9.691378596754371411e-02 1.000000000000000000e+00)
(-7.406775473334668847e-02 8.163081095560752176e-02 1.000000000000000000e+00)
(-6.349510914838733810e-02 6.888010685559090018e-02 1.000000000000000000e+00)
(-5.438377930272571270e-02 5.821128999438465040e-02 1.000000000000000000e+00)
(-4.654716774447133221e-02 4.926120270451898875e-02 1.000000000000000000e+00)
(-3.981756767897660920e-02 4.173618639692479315e-02 1.000000000000000000e+00)
(-3.404648278621145302e-02 3.539681689689790078e-02 1.000000000000000000e+00)
(-2.910159457491323653e-02 3.004659265488093117e-02 1.000000000000000000e+00)
(-2.486807949629657802e-02 2.552473364626991342e-02 1.000000000000000000e+00)
(7.692890757156336523e-01 8.287713286452668138e-01 1.000000000000000000e+00)
(7.020581649855986983e-01 8.901344858010584726e-01 1.000000000000000000e+00)
(6.208878073985875101e-01 9.570356725166625500e-01 1.000000000000000000e+00)
(5.239574653226837242e-01 1.027101723540995604e+00 1.000000000000000000e+00)
(4.102455081965480366e-01 1.095419054433055317e+00 1.000000000000000000e+00)
(2.806247567967761758e-01 1.152764474991394783e+00 1.000000000000000000e+00)
(1.398433675891389560e-01 1.182696669293451963e+00 1.000000000000000000e+00)
(4.040116934954012570e-18 1.156807135667969444e+00 1.000000000000000000e+00)
(-1.146331307922334175e-01 1.037471970521361753e+00 1.000000000000000000e+00)
(-1.894295723414176347e-01 8.904937702800387322e-01 1.000000000000000000e+00)
(-2.300990820860978059e-01 7.508622052598922236e-01 1.000000000000000000e+00)
(-2.451328013633885805e-01 6.259046084113871755e-01 1.000000000000000000e+00)
(-2.428680509563589662e-01 5.183927725450850899e-01 1.000000000000000000e+00)
(-2.300741150255198320e-01 4.281580118931626044e-01 1.000000000000000000e+00)
(-2.116381460587091479e-01 3.535162761473527593e-01 1.000000000000000000e+00)
(-1.908224600672365490e-01 2.922468860562623671e-01 1.000000000000000000e+00)
(-1.696640157797101311e-01 2.421080601538467825e-01 1.000000000000000000e+00)
(-1.493539906929281513e-01 2.010854701189994653e-01 1.000000000000000000e+00)
(-1.305252998644062801e-01 1.674659408503943459e-01 1.000000000000000000e+00)
(-1.134624629884883606e-01 1.398420295468593422e-01 1.000000000000000000e+00)
(-9.823627526656750208e-02 1.170718020051965541e-01 1.000000000000000000e+00)
(-8.479648718289965748e-02 9.823986084673475006e-02 1.000000000000000000e+00)
(-7.302552204432445626e-02 8.261333124833469821e-02 1.000000000000000000e+00)
(-6.277574583581688183e-02 6.960522975880656382e-02 1.000000000000000000e+00)
(-5.388886101919154736e-02 5.874486990541676751e-02 1.000000000000000000e+00)
(-4.620897924862599898e-02 4.965298323932426650e-02 1.000000000000000000e+00)
(-3.958840912994140288e-02 4.202364482827384423e-02 1.000000000000000000e+00)
(-3.389308909346220450e-02 3.560699910420501990e-02 1.000000000000000000e+00)
(-2.900062751953832660e-02 3.020042161599090572e-02 1.000000000000000000e+00)
(-2.480343411680476298e-02 2.563710635575583777e-02 1.000000000000000000e+00)
(8.173565412168521949e-01 8.675933997447394797e-01 1.000000000000000000e+00)
(7.596260297854396937e-01 9.183954622021031078e-01 1.000000000000000000e+00)
(6.886628226529977193e-01 9.720436426158408638e-01 1.000000000000000000e+00)
(6.024203757914382562e-01 1.025378557753178432e+00 1.000000000000000000e+00)
(4.994742751870858699e-01 1.072454486107829119e+00 1.000000000000000000e+00)
(3.800465815193577734e-01 1.102678499392101275e+00 1.000000000000000000e+00)
(2.478652584449907437e-01 1.097795971475926002e+00 1.000000000000000000e+00)
(1.146331307922334175e-01 1.037471970521361753e+00 1.000000000000000000e+00)
(9.687466172561885798e-19 9.468141217974769264e-01 1.000000000000000000e+00)
(-8.791111493591607928e-02 8.397125957756178538e-01 1.000000000000000000e+00)
(-1.474978425353243305e-01 7.272359704521048629e-01 1.000000000000000000e+00)
(-1.817853375422373852e-01 6.185930606142102661e-01 1.000000000000000000e+00)
(-1.962052326441565409e-01 5.196754342227503098e-01 1.000000000000000000e+00)
(-1.966028511520573896e-01 4.332253745292363178e-01 1.000000000000000000e+00)
(-1.880261126437035857e-01 3.596862345887676948e-01 1.000000000000000000e+00)
(-1.743308682681624644e-01 2.981885919009851227e-01 1.000000000000000000e+00)
(-1.582096775911403241e-01 2.472696115504502967e-01 1.000000000000000000e+00)
(-1.414191663768090967e-01 2.053205489634449266e-01 1.000000000000000000e+00)
(-1.250344359755458934e-01 1.708223628690567486e-01 1.000000000000000000e+00)
(-1.096638740508403126e-01 1.424410632389060405e-01 1.000000000000000000e+00)
(-9.560901466389280789e-02 1.190532239085917987e-01 1.000000000000000000e+00)
(-8.298001325409461171e-02 9.973382653279842802e-02 1.000000000000000000e+00)
(-7.177139331908780062e-02 8.373051550876993432e-02 1.000000000000000000e+00)
(-6.191173405154447307e-02 7.043583025484267957e-02 1.000000000000000000e+00)
(-5.329580638159887862e-02 5.935956607937704216e-02 1.000000000000000000e+00)
(-4.580437520928817841e-02 5.010669008587640555e-02 1.000000000000000000e+00)
(-3.931498344080490426e-02 4.235709084839673483e-02 1.000000000000000000e+00)
(-3.371001732442927695e-02 3.585174008129518586e-02 1.000000000000000000e+00)
(-2.888045968114243828e-02 3.037977638703724323e-02 1.000000000000000000e+00)
(-2.472648967725920438e-02 2.576836396261117032e-02 1.000000000000000000e+00)
(7.449701867490658991e-01 7.818644413711034469e-01 1.000000000000000000e+00)
(7.014464840385887801e-01 8.179601337118092008e-01 1.000000000000000000e+00)
(6.464363978398143251e-01 8.539306985971187869e-01 1.000000000000000000e+00)
(5.782241773833618481e-01 8.867198401400181451e-01 1.000000000000000000e+00)
(4.960332133435355062e-01 9.119875990659624954e-01 1.000000000000000000e+00)
(4.009086026909985390e-01 9.243882659226332343e-01 1.000000000000000000e+00)
(2.965358646665957609e-01 9.185108842984777144e-01 1.000000000000000000e+00)
(1.894295723414176347e-01 8.904937702800387322e-01 1.000000000000000000e+00)
(8.791111493591607928e-02 8.397125957756178538e-01 1.000000000000000000e+00)
(-0.000000000000000000e+00 7.695713592949460224e-01 1.000000000000000000e+00)
(-6.884547768967010095e-02 6.866888390686742838e-01 1.000000000000000000e+00)
(-1.168814840695347052e-01 5.988374640398639315e-01 1.000000000000000000e+00)
(-1.457043339962855732e-01 5.128769503336194635e-01 1.000000000000000000e+00)
(-1.589086750979711860e-01 4.335446608555214021e-01 1.000000000000000000e+00)
(-1.606874679750743828e-01 3.633301292784451020e-01 1.000000000000000000e+00)
(-1.548765227577559023e-01 3.029478073042864428e-01 1.000000000000000000e+00)
(-1.445333710790307202e-01 2.519966075929677141e-01 1.000000000000000000e+00)
(-1.318769013654616795e-01 2.095045860378503821e-01 1.000000000000000000e+00)
(-1.184060957499484673e-01 1.743007797496313738e-01 1.000000000000000000e+00)
(-1.050713433173509903e-01 1.452237858547500704e-01 1.000000000000000000e+00)
(-9.243241844065659685e-02 1.212239432686599977e-01 1.000000000000000000e+00)
(-8.078596326807341299e-02 1.013980090012854551e-01 1.000000000000000000e+00)
(-7.025872403913188680e-02 8.499074661879553461e-02 1.000000000000000000e+00)
(-6.087152598448537094e-02 7.138162674205414393e-02 1.000000000000000000e+00)
(-5.258332297994827015e-02 6.006466357357226338e-02 1.000000000000000000e+00)
(-4.531914617275651508e-02 5.062952901296283864e-02 1.000000000000000000e+00)
(-3.898711787953755559e-02 4.274339143203960412e-02 1.000000000000000000e+00)
(-3.349131695304877199e-02 3.613653508667894615e-02 1.000000000000000000e+00)
(-2.873699943965422540e-02 3.058890294030525842e-02 1.000000000000000000e+00)
(-2.463476316896982127e-02 2.592186992491335093e-02 1.000000000000000000e+00)
(6.131094056165411477e-01 6.378278696769948963e-01 1.000000000000000000e+00)
(5.844132367187969690e-01 6.626123560367604970e-01 1.000000000000000000e+00)
(5.484206374741812384e-01 6.882821592722270232e-01 1.000000000000000000e+00)
(5.037616262933155564e-01 7.133582283134353164e-01 1.000000000000000000e+00)
(4.493180778924140140e-01 7.355596175203102938e-01 1.000000000000000000e+00)
(3.846750468276763923e-01 7.517435288813787420e-01 1.000000000000000000e+00)
(3.107024069628587237e-01 7.581121810209930922e-01 1.000000000000000000e+00)
(2.300990820860978059e-01 7.508622052598922236e-01 1.000000000000000000e+00)
(1.474978425353243305e-01 7.272359704521048629e-01 1.000000000000000000e+00)
(6.884547768967010095e-02 6.866888390686742838e-01 1.000000000000000000e+00)
(9.189922889977735424e-19 6.314587562280863375e-01 1.000000000000000000e+00)
(-5.481399547990518928e-02 5.661513776961946132e-01 1.000000000000000000e+00)
(-9.393388622766647711e-02 4.964161730452086863e-01 1.000000000000000000e+00)
(-1.181687821426429669e-01 4.274762147379448374e-01 1.000000000000000000e+00)
(-1.299659938590773389e-01 3.631604375357267434e-01 1.000000000000000000e+00)
(-1.324008812040280980e-01 3.056503950102173461e-01 1.000000000000000000e+00)
(-1.284308542911790918e-01 2.557502258765895764e-01 1.000000000000000000e+00)
(-1.205009367032922746e-01 2.133285306231960943e-01 1.000000000000000000e+00)
(-1.104430033882606854e-01 1.777372479559004570e-01 1.000000000000000000e+00)
(-9.953063537278025730e-02 1.481107771997722256e-01 1.000000000000000000e+00)
(-8.859264628418291043e-02 1.235513904187565820e-01 1.000000000000000000e+00)
(-7.813303535367281671e-02 1.032242281027064557e-01 1.000000000000000000e+00)
(-6.843085693870458452e-02 8.639728351837948350e-02 1.000000000000000000e+00)
(-5.961624822412377178e-02 7.245046077480800373e-02 1.000000000000000000e+00)
(-5.172507630279635227e-02 6.086910652514193609e-02 1.000000000000000000e+00)
(-4.473545203476177179e-02 5.123063665192465616e-02 1.000000000000000000e+00)
(-3.859375515726360534e-02 4.319006621388373629e-02 1.000000000000000000e+00)
(-3.322921605797020395e-02 3.646702459973844707e-02 1.000000000000000000e+00)
(-2.856536160234094193e-02 3.083261768998431240e-02 1.000000000000000000e+00)
(-2.452503141472764034e-02 2.610110923782116288e-02 1.000000000000000000e+00)
(5.077385877448876705e-01 5.245345566712759089e-01 1.000000000000000000e+00)
(4.885072658620824293e-01 5.417060239357115448e-01 1.000000000000000000e+00)
(4.645756821756412136e-01 5.599883153443567796e-01 1.000000000000000000e+00)
(4.349498414809180868e-01 5.786881373232981574e-01 1.000000000000000000e+00)
(3.986546650695165228e-01 5.966505012460506796e-01 1.000000000000000000e+00)
(3.549221364876197216e-01 6.121420568385969041e-01 1.000000000000000000e+00)
(3.035131498685032514e-01 6.228229696809678417e-01 1.000000000000000000e+00)
(2.451328013633885805e-01 6.259046084113871755e-01 1.000000000000000000e+00)
(1.817853375422373852e-01 6.185930606142102661e-01 1.000000000000000000e+00)
(1.168814840695347052e-01 5.988374640398639315e-01 1.000000000000000000e+00)
(5.481399547990518928e-02 5.661513776961946132e-01 1.000000000000000000e+00)
(-0.000000000000000000e+00 5.220500595947555889e-01 1.000000000000000000e+00)
(-4.422722442749815047e-02 4.698526054346713887e-01 1.000000000000000000e+00)
(-7.636486570883403713e-02 4.137778938085873159e-01 1.000000000000000000e+00)
(-9.678006062663181697e-02 3.578796437737377101e-01 1.000000000000000000e+00)
(-1.071733518514861594e-01 3.052647231466441013e-01 1.000000000000000000e+00)
(-1.098498740220309744e-01 2.578216436802905354e-01 1.000000000000000000e+00)
(-1.071201968021230494e-01 2.163518836651344701e-01 1.000000000000000000e+00)
(-1.009564997634928574e-01 1.808787952891058037e-01 1.000000000000000000e+00)
(-9.287685247811899858e-02 1.509676716875733571e-01 1.000000000000000000e+00)
(-8.396036496153815032e-02 1.259712095424706801e-01 1.000000000000000000e+00)
(-7.492545686913851255e-02 1.051868284582232055e-01 1.000000000000000000e+00)
(-6.621954041294257631e-02 8.794426985638346961e-02 1.000000000000000000e+00)
(-5.809840299069855135e-02 7.364609836017220468e-02 1.000000000000000000e+00)
(-5.068838023129968590e-02 6.178034720499026022e-02 1.000000000000000000e+00)
(-4.403153055868357785e-02 5.191776220449777907e-02 1.000000000000000000e+00)
(-3.811989167996927136e-02 4.370433049753084942e-02 1.000000000000000000e+00)
(-3.291403583471028821e-02 3.684965686096535603e-02 1.000000000000000000e+00)
(-2.835906206582437805e-02 3.111615488123534515e-02 1.000000000000000000e+00)
(-2.439332048945906314e-02 2.631022402633192980e-02 1.000000000000000000e+00)
(4.225906044821994834e-01 4.341318318454653880e-01 1.000000000000000000e+00)
(4.095393533399988018e-01 4.461201397281132630e-01 1.000000000000000000e+00)
(3.934123974722860129e-01 4.591486232649912846e-01 1.000000000000000000e+00)
(3.735289689900831434e-01 4.729067450328698907e-01 1.000000000000000000e+00)
(3.491468305702725705e-01 4.868343373695462883e-01 1.000000000000000000e+00)
(3.195425977535591433e-01 5.000252499816653096e-01 1.000000000000000000e+00)
(2.841651406678337710e-01 5.111388737878798105e-01 1.000000000000000000e+00)
(2.428680509563589662e-01 5.183927725450850899e-01 1.000000000000000000e+00)
(1.962052326441565409e-01 5.196754342227503098e-01 1.000000000000000000e+00)
(1.457043339962855732e-01 5.128769503336194635e-01 1.000000000000000000e+00)
(9.393388622766647711e-02 4.964161730452086863e-01 1.000000000000000000e+00)