/*--------------------------------*- C++ -*----------------------------------*\
  =========                 |
  \\      /  F ield         | OpenFOAM: The Open Source CFD Toolbox
   \\    /   O peration     | Website:  https://openfoam.org
    \\  /    A nd           | Version:  11
     \\/     M anipulation  |
\*---------------------------------------------------------------------------*/
FoamFile
{
    format      ascii;
    class       volScalarField;
    location    "131";
    object      epsilon;
}
// * * * * * * * * * * * * * * * * * * * * * * * * * * * * * * * * * * * * * //

dimensions      [0 2 -3 0 0 0 0];

internalField   nonuniform List<scalar> 
65536
(
0.197035
0.197035
0.197035
0.197036
0.197036
0.197036
0.197036
0.197037
0.197037
0.197038
0.197038
0.197039
0.19704
0.197041
0.197043
0.197045
0.197048
0.197052
0.197058
0.197066
0.197079
0.197099
0.19713
0.197178
0.197247
0.197336
0.197404
0.197301
0.196484
0.193162
0.181173
0.141566
0.197035
0.197035
0.197035
0.197035
0.197036
0.197036
0.197036
0.197036
0.197037
0.197037
0.197038
0.197039
0.19704
0.197041
0.197043
0.197045
0.197048
0.197052
0.197057
0.197066
0.197079
0.197099
0.197131
0.197179
0.19725
0.197339
0.197405
0.197294
0.196454
0.193079
0.180982
0.141287
0.197035
0.197035
0.197035
0.197036
0.197036
0.197036
0.197036
0.197036
0.197037
0.197037
0.197038
0.197039
0.19704
0.197041
0.197043
0.197045
0.197048
0.197052
0.197058
0.197067
0.19708
0.197101
0.197134
0.197183
0.197255
0.197344
0.197407
0.197284
0.196411
0.192961
0.180722
0.140885
0.197036
0.197035
0.197036
0.197036
0.197036
0.197036
0.197036
0.197037
0.197037
0.197038
0.197038
0.197039
0.19704
0.197042
0.197043
0.197046
0.197049
0.197053
0.197059
0.197068
0.197083
0.197105
0.197138
0.197189
0.197262
0.197352
0.19741
0.197272
0.196356
0.192809
0.18039
0.140383
0.197036
0.197036
0.197036
0.197036
0.197036
0.197036
0.197036
0.197037
0.197037
0.197038
0.197039
0.19704
0.197041
0.197042
0.197044
0.197046
0.197049
0.197054
0.197061
0.197071
0.197086
0.197109
0.197144
0.197197
0.197272
0.197361
0.197414
0.197255
0.196287
0.192621
0.179985
0.139782
0.197036
0.197036
0.197036
0.197036
0.197036
0.197036
0.197037
0.197037
0.197038
0.197038
0.197039
0.19704
0.197041
0.197043
0.197044
0.197047
0.19705
0.197055
0.197063
0.197073
0.197089
0.197114
0.197151
0.197207
0.197283
0.197372
0.197418
0.197234
0.196201
0.192393
0.179503
0.139078
0.197036
0.197036
0.197036
0.197036
0.197036
0.197036
0.197037
0.197037
0.197038
0.197039
0.197039
0.19704
0.197042
0.197043
0.197045
0.197048
0.197052
0.197057
0.197065
0.197077
0.197094
0.19712
0.19716
0.197218
0.197297
0.197384
0.197422
0.197207
0.196096
0.192122
0.178938
0.138267
0.197036
0.197036
0.197036
0.197036
0.197037
0.197037
0.197037
0.197038
0.197038
0.197039
0.19704
0.197041
0.197042
0.197044
0.197046
0.197049
0.197054
0.197059
0.197068
0.197081
0.1971
0.197129
0.197171
0.197232
0.197314
0.197398
0.197424
0.197171
0.195968
0.191801
0.178284
0.137346
0.197037
0.197037
0.197037
0.197037
0.197037
0.197037
0.197038
0.197038
0.197039
0.19704
0.19704
0.197042
0.197043
0.197045
0.197048
0.197051
0.197056
0.197062
0.197072
0.197086
0.197107
0.197139
0.197184
0.197249
0.197333
0.197413
0.197424
0.197124
0.195812
0.191423
0.177533
0.13631
0.197037
0.197037
0.197037
0.197038
0.197038
0.197038
0.197038
0.197039
0.197039
0.19704
0.197041
0.197043
0.197044
0.197047
0.197049
0.197053
0.197059
0.197066
0.197077
0.197093
0.197116
0.197151
0.1972
0.197269
0.197355
0.19743
0.19742
0.197064
0.195624
0.190981
0.176676
0.135154
0.197038
0.197038
0.197038
0.197038
0.197039
0.197039
0.197039
0.19704
0.197041
0.197041
0.197042
0.197044
0.197046
0.197048
0.197052
0.197056
0.197062
0.197071
0.197083
0.197102
0.197128
0.197166
0.19722
0.197292
0.197378
0.197447
0.19741
0.196985
0.195396
0.190464
0.175701
0.133871
0.197039
0.197039
0.197039
0.197039
0.197039
0.19704
0.19704
0.197041
0.197042
0.197043
0.197044
0.197045
0.197048
0.19705
0.197054
0.19706
0.197067
0.197077
0.197092
0.197112
0.197142
0.197184
0.197243
0.197318
0.197404
0.197462
0.197391
0.196883
0.195119
0.189861
0.174597
0.132454
0.19704
0.19704
0.19704
0.19704
0.197041
0.197041
0.197042
0.197042
0.197043
0.197044
0.197046
0.197048
0.19705
0.197053
0.197058
0.197064
0.197073
0.197085
0.197102
0.197126
0.19716
0.197207
0.19727
0.197349
0.197431
0.197475
0.197359
0.19675
0.194783
0.189158
0.173348
0.130897
0.197041
0.197041
0.197041
0.197041
0.197042
0.197042
0.197043
0.197044
0.197045
0.197047
0.197048
0.19705
0.197053
0.197057
0.197063
0.19707
0.197081
0.197095
0.197115
0.197143
0.197182
0.197234
0.197302
0.197383
0.197459
0.197481
0.197309
0.196578
0.194376
0.188338
0.171938
0.129191
0.197043
0.197043
0.197043
0.197043
0.197044
0.197044
0.197045
0.197046
0.197048
0.197049
0.197051
0.197054
0.197058
0.197063
0.197069
0.197078
0.197091
0.197108
0.197132
0.197165
0.197209
0.197267
0.197339
0.19742
0.197485
0.197478
0.197233
0.196355
0.193879
0.18738
0.170347
0.127328
0.197045
0.197045
0.197045
0.197045
0.197046
0.197047
0.197048
0.197049
0.197051
0.197053
0.197056
0.19706
0.197064
0.19707
0.197079
0.19709
0.197105
0.197126
0.197154
0.197192
0.197242
0.197305
0.19738
0.197458
0.197507
0.197457
0.19712
0.196066
0.193273
0.186261
0.168551
0.125297
0.197048
0.197048
0.197048
0.197049
0.197049
0.19705
0.197052
0.197053
0.197056
0.197058
0.197062
0.197067
0.197073
0.197081
0.197091
0.197105
0.197124
0.197149
0.197183
0.197226
0.197282
0.197349
0.197425
0.197494
0.197519
0.19741
0.196958
0.19569
0.192533
0.184949
0.166525
0.123087
0.197052
0.197052
0.197052
0.197053
0.197054
0.197055
0.197057
0.197059
0.197062
0.197066
0.197071
0.197077
0.197085
0.197096
0.197109
0.197127
0.197149
0.197179
0.197218
0.197268
0.197329
0.197399
0.197471
0.197524
0.197512
0.197325
0.196726
0.195203
0.191625
0.18341
0.164236
0.120688
0.197058
0.197057
0.197058
0.197059
0.197061
0.197063
0.197065
0.197068
0.197072
0.197077
0.197083
0.197092
0.197102
0.197116
0.197133
0.197155
0.197183
0.197219
0.197264
0.197318
0.197383
0.197452
0.197515
0.197541
0.197473
0.197182
0.196399
0.19457
0.19051
0.181599
0.161649
0.118087
0.197066
0.197066
0.197067
0.197069
0.197071
0.197073
0.197077
0.197081
0.197086
0.197093
0.197101
0.197112
0.197126
0.197144
0.197165
0.197193
0.197227
0.197268
0.197319
0.197378
0.197442
0.197506
0.197546
0.197533
0.197386
0.196955
0.195942
0.193746
0.189135
0.179463
0.15872
0.11527
0.197079
0.197079
0.197081
0.197083
0.197086
0.197089
0.197094
0.1971
0.197107
0.197116
0.197128
0.197142
0.19716
0.197182
0.197209
0.197242
0.197282
0.197329
0.197383
0.197442
0.197502
0.197547
0.197556
0.197477
0.19722
0.196607
0.195306
0.192675
0.187434
0.176933
0.155399
0.112223
0.197099
0.1971
0.197102
0.197105
0.197109
0.197114
0.197121
0.197129
0.197139
0.197151
0.197166
0.197185
0.197207
0.197234
0.197267
0.197305
0.197349
0.197399
0.197452
0.197505
0.197546
0.197561
0.197513
0.197341
0.19693
0.196082
0.194425
0.191276
0.18532
0.173928
0.151622
0.108928
0.19713
0.197131
0.197134
0.197139
0.197144
0.197152
0.19716
0.197171
0.197185
0.197201
0.19722
0.197243
0.19727
0.197302
0.197339
0.19738
0.197425
0.197472
0.197515
0.197546
0.197554
0.197511
0.197376
0.197065
0.196451
0.195296
0.193203
0.189444
0.18268
0.170337
0.147318
0.105369
0.197178
0.19718
0.197184
0.19719
0.197197
0.197207
0.197219
0.197233
0.19725
0.197269
0.197292
0.197319
0.197349
0.197383
0.197421
0.197458
0.197494
0.197525
0.197542
0.197533
0.197476
0.197339
0.197063
0.196558
0.195664
0.194126
0.191498
0.187028
0.179363
0.166027
0.142396
0.101524
0.197248
0.19725
0.197255
0.197262
0.197272
0.197284
0.197298
0.197314
0.197334
0.197355
0.197379
0.197405
0.197432
0.197459
0.197486
0.197508
0.19752
0.197514
0.197476
0.197388
0.197221
0.19693
0.196447
0.195662
0.194401
0.19237
0.189105
0.183811
0.175158
0.160817
0.136746
0.0973678
0.197337
0.197339
0.197345
0.197352
0.197361
0.197372
0.197385
0.197399
0.197414
0.19743
0.197447
0.197463
0.197475
0.197482
0.197478
0.197458
0.197412
0.197328
0.197186
0.19696
0.196611
0.196083
0.195295
0.194122
0.192368
0.189725
0.185691
0.179468
0.169758
0.154464
0.130225
0.0928687
0.197404
0.197405
0.197407
0.197411
0.197415
0.197419
0.197422
0.197425
0.197425
0.197421
0.19741
0.197391
0.19736
0.19731
0.197234
0.197122
0.196961
0.19673
0.196405
0.195949
0.195313
0.19443
0.193204
0.191497
0.1891
0.185688
0.180752
0.173496
0.162715
0.146614
0.122636
0.0879753
0.197302
0.197295
0.197285
0.197272
0.197256
0.197235
0.197207
0.197172
0.197125
0.197064
0.196986
0.196883
0.196751
0.196579
0.196357
0.196068
0.195694
0.195208
0.194576
0.193754
0.192684
0.191284
0.189449
0.187029
0.183809
0.179463
0.173493
0.165151
0.153374
0.136773
0.113684
0.0825835
0.196484
0.196455
0.196412
0.196356
0.196287
0.196201
0.196096
0.195968
0.195813
0.195624
0.195396
0.195119
0.194784
0.194376
0.193881
0.193276
0.192537
0.19163
0.190517
0.189143
0.187443
0.185329
0.182688
0.179368
0.175158
0.169756
0.162712
0.153372
0.140884
0.124323
0.102988
0.076494
0.193162
0.193079
0.192961
0.192809
0.192621
0.192394
0.192122
0.191801
0.191423
0.190981
0.190464
0.189862
0.189158
0.188339
0.187381
0.186263
0.184952
0.183415
0.181605
0.179471
0.176942
0.173936
0.170344
0.166033
0.16082
0.154464
0.146612
0.13677
0.124322
0.108786
0.0903158
0.0694831
0.181174
0.180983
0.180722
0.18039
0.179985
0.179503
0.178938
0.178284
0.177533
0.176676
0.175701
0.174597
0.173348
0.171938
0.170347
0.168552
0.166527
0.16424
0.161654
0.158726
0.155405
0.151628
0.147324
0.142401
0.136749
0.130226
0.122635
0.113682
0.102987
0.0903155
0.0762349
0.0619381
0.141566
0.141287
0.140885
0.140384
0.139782
0.139078
0.138267
0.137346
0.13631
0.135154
0.133871
0.132454
0.130897
0.129192
0.127328
0.125297
0.123089
0.12069
0.118089
0.115273
0.112226
0.108931
0.105372
0.101526
0.0973695
0.0928693
0.0879749
0.0825828
0.0764934
0.0694828
0.0619379
0.0545177
0.0338384
0.0338383
0.0338384
0.0338387
0.0338391
0.0338397
0.0338405
0.0338414
0.0338426
0.033844
0.0338458
0.033848
0.0338507
0.0338542
0.0338587
0.0338646
0.0338726
0.0338836
0.0338993
0.0339219
0.0339549
0.0340032
0.0340724
0.0341666
0.0342817
0.0343774
0.0343642
0.0339825
0.0326823
0.0293777
0.0221883
0.0100334
0.0338383
0.0338382
0.0338383
0.0338386
0.033839
0.0338396
0.0338404
0.0338413
0.0338425
0.0338439
0.0338457
0.0338479
0.0338506
0.0338541
0.0338586
0.0338646
0.0338727
0.0338839
0.0338998
0.0339227
0.0339563
0.0340054
0.0340755
0.0341706
0.0342858
0.0343797
0.0343605
0.0339658
0.032644
0.0293145
0.0221165
0.0100014
0.0338384
0.0338383
0.0338384
0.0338387
0.0338392
0.0338398
0.0338405
0.0338415
0.0338427
0.0338441
0.0338459
0.0338482
0.033851
0.0338546
0.0338592
0.0338654
0.0338737
0.0338852
0.0339016
0.0339253
0.0339599
0.0340103
0.0340819
0.0341783
0.0342934
0.0343847
0.0343564
0.0339421
0.0325879
0.0292172
0.021994
0.00992835
0.0338387
0.0338386
0.0338387
0.033839
0.0338395
0.0338401
0.0338409
0.0338419
0.0338431
0.0338446
0.0338465
0.0338488
0.0338517
0.0338554
0.0338602
0.0338666
0.0338753
0.0338874
0.0339045
0.0339292
0.0339652
0.0340174
0.0340911
0.0341892
0.0343041
0.0343918
0.0343514
0.033912
0.0325163
0.0290931
0.0218383
0.00983611
0.0338391
0.033839
0.0338392
0.0338395
0.0338399
0.0338406
0.0338414
0.0338424
0.0338437
0.0338453
0.0338473
0.0338497
0.0338527
0.0338566
0.0338617
0.0338684
0.0338776
0.0338903
0.0339084
0.0339345
0.0339723
0.0340268
0.034103
0.0342031
0.0343175
0.0344004
0.0343448
0.0338744
0.0324282
0.0289422
0.0216515
0.00972716
0.0338397
0.0338396
0.0338397
0.03384
0.0338405
0.0338412
0.0338421
0.0338432
0.0338445
0.0338462
0.0338483
0.0338508
0.0338541
0.0338582
0.0338636
0.0338708
0.0338806
0.0338942
0.0339135
0.0339413
0.0339814
0.0340386
0.0341179
0.0342203
0.0343336
0.0344102
0.0343355
0.0338276
0.0323216
0.0287629
0.0214331
0.00960195
0.0338404
0.0338403
0.0338404
0.0338408
0.0338413
0.033842
0.0338429
0.0338441
0.0338456
0.0338473
0.0338495
0.0338523
0.0338557
0.0338602
0.033866
0.0338737
0.0338843
0.0338991
0.03392
0.0339499
0.0339927
0.0340532
0.0341359
0.0342407
0.0343523
0.0344205
0.0343225
0.0337698
0.0321943
0.0285532
0.0211821
0.00946071
0.0338413
0.0338412
0.0338414
0.0338418
0.0338423
0.0338431
0.033844
0.0338453
0.0338468
0.0338487
0.0338511
0.0338541
0.0338578
0.0338627
0.033869
0.0338775
0.0338891
0.0339053
0.0339281
0.0339605
0.0340066
0.034071
0.0341575
0.0342646
0.0343735
0.0344305
0.0343039
0.0336985
0.0320434
0.0283104
0.0208972
0.00930368
0.0338425
0.0338423
0.0338425
0.033843
0.0338436
0.0338445
0.0338455
0.0338468
0.0338484
0.0338505
0.033853
0.0338563
0.0338604
0.0338658
0.0338728
0.0338823
0.0338952
0.0339131
0.0339382
0.0339738
0.0340237
0.0340924
0.034183
0.0342922
0.0343966
0.0344391
0.0342778
0.0336109
0.0318655
0.0280317
0.0205772
0.00913117
0.0338439
0.0338438
0.033844
0.0338445
0.0338452
0.0338461
0.0338473
0.0338487
0.0338504
0.0338527
0.0338555
0.0338591
0.0338637
0.0338697
0.0338777
0.0338883
0.0339028
0.0339229
0.0339509
0.0339901
0.0340445
0.034118
0.0342127
0.0343233
0.0344209
0.0344448
0.0342418
0.0335036
0.0316569
0.0277139
0.0202206
0.00894355
0.0338457
0.0338456
0.0338459
0.0338464
0.0338472
0.0338482
0.0338495
0.0338511
0.033853
0.0338555
0.0338586
0.0338627
0.0338679
0.0338747
0.0338838
0.033896
0.0339125
0.0339353
0.0339668
0.0340103
0.0340697
0.0341485
0.0342471
0.0343578
0.0344455
0.0344456
0.0341925
0.0333723
0.031413
0.0273533
0.0198261
0.00874132
0.0338479
0.0338478
0.0338481
0.0338487
0.0338496
0.0338508
0.0338522
0.033854
0.0338563
0.0338591
0.0338627
0.0338673
0.0338733
0.0338811
0.0338916
0.0339057
0.0339248
0.0339509
0.0339866
0.0340352
0.0341002
0.0341844
0.0342863
0.0343943
0.0344698
0.0344383
0.0341259
0.0332121
0.0311286
0.0269459
0.019392
0.00852502
0.0338507
0.0338505
0.0338509
0.0338516
0.0338527
0.033854
0.0338557
0.0338578
0.0338604
0.0338638
0.0338679
0.0338733
0.0338802
0.0338895
0.0339017
0.0339182
0.0339405
0.0339706
0.0340112
0.0340656
0.0341367
0.0342262
0.0343303
0.0344325
0.034491
0.0344195
0.0340369
0.0330168
0.0307978
0.0264872
0.0189171
0.00829531
0.0338542
0.033854
0.0338545
0.0338553
0.0338565
0.0338581
0.0338601
0.0338626
0.0338658
0.0338697
0.0338748
0.0338812
0.0338895
0.0339004
0.033915
0.0339345
0.0339606
0.0339955
0.0340418
0.0341025
0.0341799
0.034274
0.0343784
0.0344707
0.0345052
0.0343842
0.0339189
0.0327791
0.0304135
0.0259725
0.0183996
0.0080529
0.0338587
0.0338585
0.0338591
0.0338601
0.0338616
0.0338635
0.0338659
0.0338689
0.0338728
0.0338776
0.0338838
0.0338917
0.0339018
0.0339151
0.0339325
0.0339557
0.0339864
0.0340269
0.0340797
0.0341471
0.0342305
0.0343278
0.0344293
0.0345058
0.0345083
0.0343257
0.0337638
0.0324904
0.0299679
0.0253962
0.0178383
0.0077987
0.0338646
0.0338645
0.0338652
0.0338665
0.0338683
0.0338707
0.0338736
0.0338774
0.0338822
0.0338882
0.0338959
0.0339058
0.0339183
0.0339346
0.0339558
0.0339835
0.0340196
0.0340664
0.0341261
0.0342002
0.0342886
0.0343866
0.0344796
0.0345348
0.0344929
0.0342355
0.0335617
0.0321401
0.029452
0.0247529
0.0172318
0.00753359
0.0338726
0.0338726
0.0338736
0.0338752
0.0338775
0.0338805
0.0338842
0.033889
0.0338951
0.0339027
0.0339125
0.0339248
0.0339406
0.0339608
0.0339866
0.0340197
0.0340621
0.0341157
0.0341823
0.0342624
0.0343535
0.034448
0.0345255
0.0345496
0.0344503
0.0341022
0.0333
0.0317161
0.0288555
0.0240362
0.016579
0.0072587
0.0338837
0.0338838
0.0338851
0.0338873
0.0338903
0.0338941
0.033899
0.0339052
0.033913
0.0339228
0.0339352
0.0339509
0.0339707
0.0339956
0.0340271
0.0340666
0.0341159
0.0341765
0.0342492
0.0343331
0.0344232
0.0345077
0.0345606
0.034541
0.0343681
0.0339117
0.0329636
0.0312041
0.0281671
0.0232401
0.015879
0.00697512
0.0338994
0.0338997
0.0339015
0.0339044
0.0339084
0.0339135
0.0339199
0.033928
0.0339382
0.0339509
0.0339667
0.0339866
0.0340113
0.0340419
0.0340799
0.0341263
0.0341825
0.0342493
0.0343262
0.03441
0.034493
0.0345575
0.0345749
0.0344945
0.0342298
0.0336455
0.0325338
0.0305872
0.0273741
0.0223576
0.0151315
0.00668415
0.033922
0.0339226
0.0339252
0.0339292
0.0339345
0.0339413
0.0339498
0.0339605
0.0339738
0.0339901
0.0340103
0.0340352
0.0340656
0.0341026
0.0341473
0.0342005
0.0342626
0.0343333
0.0344101
0.0344873
0.0345533
0.0345855
0.0345515
0.0343913
0.0340137
0.0332808
0.0319885
0.0298461
0.0264626
0.0213828
0.0143362
0.00638699
0.0339551
0.0339563
0.0339599
0.0339652
0.0339723
0.0339814
0.0339927
0.0340067
0.0340237
0.0340445
0.0340698
0.0341003
0.0341368
0.03418
0.0342307
0.0342889
0.0343538
0.0344234
0.034493
0.0345532
0.0345877
0.0345732
0.0344668
0.0342042
0.0336911
0.0327887
0.0313008
0.0289586
0.0254176
0.0203087
0.0134943
0.00608501
0.0340034
0.0340054
0.0340102
0.0340174
0.0340268
0.0340387
0.0340533
0.0340711
0.0340925
0.0341181
0.0341486
0.0341845
0.0342263
0.0342742
0.034328
0.0343869
0.0344484
0.034508
0.0345577
0.0345855
0.0345732
0.0344886
0.0342853
0.0338964
0.0332237
0.032133
0.0304387
0.0278995
0.0242232
0.0191305
0.0126069
0.0057794
0.0340726
0.0340755
0.0340819
0.0340911
0.0341031
0.034118
0.0341361
0.0341577
0.0341831
0.0342129
0.0342473
0.0342866
0.0343306
0.0343787
0.0344297
0.03448
0.0345259
0.0345612
0.0345753
0.0345517
0.0344664
0.0342849
0.0339585
0.0334159
0.0325626
0.0312678
0.0293639
0.0266407
0.0228633
0.0178431
0.0116769
0.00547138
0.0341669
0.0341706
0.0341783
0.0341893
0.0342033
0.0342204
0.0342409
0.0342648
0.0342924
0.0343236
0.0343581
0.0343946
0.0344328
0.0344711
0.0345062
0.0345354
0.0345503
0.0345419
0.0344954
0.0343918
0.0342043
0.0338959
0.0334156
0.032695
0.031641
0.0301361
0.0280297
0.0251499
0.0213214
0.0164445
0.010708
0.00516188
0.0342821
0.0342858
0.0342935
0.0343042
0.0343177
0.0343338
0.0343526
0.0343738
0.0343969
0.0344212
0.0344458
0.0344702
0.0344914
0.0345057
0.0345089
0.0344937
0.0344513
0.0343694
0.0342312
0.034015
0.0336918
0.0332239
0.0325618
0.0316405
0.0303772
0.0286653
0.0263816
0.0233909
0.0195811
0.0149335
0.00970554
0.0048517
0.0343777
0.0343798
0.0343848
0.0343919
0.0344006
0.0344104
0.0344208
0.0344308
0.0344394
0.0344452
0.034446
0.0344388
0.0344201
0.0343848
0.0343265
0.0342365
0.0341035
0.0339133
0.0336475
0.0332828
0.0327904
0.0321338
0.0312677
0.0301352
0.0286648
0.0267704
0.0243541
0.0213246
0.0176265
0.0133117
0.00867495
0.00454074
0.0343646
0.0343607
0.0343565
0.0343516
0.034345
0.0343358
0.0343228
0.0343043
0.0342783
0.0342422
0.034193
0.0341265
0.0340375
0.0339196
0.0337647
0.0335628
0.0333015
0.0329654
0.0325361
0.031991
0.0313031
0.0304405
0.0293646
0.0280296
0.0263807
0.0243536
0.0218824
0.0189145
0.0154473
0.0115825
0.00762095
0.00422677
0.0339828
0.0339659
0.0339423
0.0339122
0.0338746
0.0338279
0.0337701
0.0336989
0.0336113
0.0335041
0.0333728
0.0332127
0.0330174
0.0327799
0.0324913
0.0321413
0.0317177
0.031206
0.0305894
0.0298486
0.0289611
0.0279018
0.0266422
0.0251503
0.0233906
0.0213238
0.0189141
0.0161447
0.0130503
0.00976
0.00654761
0.00390296
0.0326826
0.0326442
0.0325881
0.0325165
0.0324284
0.032322
0.0321947
0.0320438
0.0318659
0.0316573
0.0314135
0.0311292
0.0307984
0.0304142
0.0299688
0.029453
0.0288568
0.0281687
0.027376
0.0264647
0.0254199
0.0242254
0.022865
0.0213223
0.0195812
0.0176262
0.0154468
0.01305
0.0104875
0.00788582
0.00546889
0.00355987
0.029378
0.0293146
0.0292173
0.0290932
0.0289423
0.0287631
0.0285534
0.0283106
0.028032
0.0277142
0.0273536
0.0269463
0.0264876
0.025973
0.0253968
0.0247537
0.0240372
0.0232413
0.022359
0.0213844
0.0203104
0.0191322
0.0178446
0.0164456
0.014934
0.0133117
0.0115822
0.00975965
0.00788565
0.00605617
0.00443036
0.00319953
0.0221885
0.0221165
0.0219939
0.0218383
0.0216515
0.0214332
0.0211821
0.0208973
0.0205772
0.0202206
0.0198261
0.0193921
0.0189172
0.0183998
0.0178386
0.0172322
0.0165796
0.0158797
0.0151324
0.0143373
0.0134954
0.012608
0.0116779
0.0107087
0.00970596
0.00867503
0.00762077
0.00654736
0.00546874
0.0044303
0.00352592
0.00286178
0.0100335
0.0100014
0.00992837
0.00983614
0.0097272
0.009602
0.00946078
0.00930376
0.00913125
0.00894365
0.00874144
0.00852515
0.00829549
0.00805314
0.00779901
0.00753399
0.00725919
0.00697569
0.00668478
0.00638766
0.00608569
0.00578003
0.00547193
0.00516231
0.00485196
0.00454083
0.00422671
0.00390285
0.00355977
0.00319947
0.00286175
0.00261154
0.00838339
0.00838342
0.00838358
0.00838389
0.00838433
0.00838492
0.00838568
0.00838663
0.00838781
0.00838927
0.00839109
0.00839336
0.00839622
0.00839988
0.00840461
0.00841084
0.00841918
0.00843049
0.00844599
0.00846727
0.00849614
0.00853412
0.00858075
0.00863004
0.00866235
0.00863933
0.00847797
0.00804059
0.00713163
0.00554863
0.00328495
0.00107217
0.00838342
0.00838345
0.00838361
0.00838392
0.00838437
0.00838497
0.00838573
0.00838669
0.00838788
0.00838936
0.0083912
0.00839349
0.00839639
0.0084001
0.00840491
0.00841125
0.00841974
0.00843126
0.00844704
0.00846869
0.008498
0.00853642
0.0085833
0.00863226
0.00866332
0.00863712
0.00847007
0.00802457
0.00710695
0.00551961
0.00326264
0.00106663
0.00838359
0.00838362
0.00838378
0.00838409
0.00838455
0.00838516
0.00838594
0.00838692
0.00838814
0.00838965
0.00839153
0.00839388
0.00839685
0.00840066
0.0084056
0.00841212
0.00842085
0.00843271
0.00844893
0.00847111
0.00850106
0.00854008
0.00858728
0.00863564
0.00866481
0.00863404
0.00845903
0.0080024
0.00707313
0.00548006
0.00323229
0.00105927
0.00838389
0.00838392
0.0083841
0.00838442
0.00838489
0.00838552
0.00838632
0.00838734
0.00838859
0.00839015
0.0083921
0.00839453
0.00839761
0.00840156
0.0084067
0.00841348
0.00842256
0.00843487
0.00845169
0.00847462
0.00850541
0.0085452
0.00859274
0.00864022
0.00866677
0.00862993
0.00844462
0.00797385
0.00703005
0.00543009
0.00319425
0.00105012
0.00838433
0.00838437
0.00838455
0.00838488
0.00838537
0.00838603
0.00838687
0.00838793
0.00838925
0.00839088
0.00839291
0.00839546
0.00839868
0.00840283
0.00840822
0.00841535
0.00842489
0.00843781
0.0084554
0.00847927
0.00851109
0.00855179
0.00859965
0.00864595
0.00866896
0.00862442
0.00842632
0.00793839
0.00697738
0.0053698
0.00314891
0.00103934
0.00838493
0.00838496
0.00838515
0.0083855
0.00838602
0.00838671
0.00838759
0.00838872
0.0083901
0.00839183
0.00839398
0.00839667
0.00840009
0.00840449
0.00841021
0.00841778
0.00842791
0.0084416
0.00846015
0.00848517
0.0085182
0.00855993
0.00860811
0.00865255
0.00867106
0.00861695
0.00840343
0.00789529
0.00691456
0.00529901
0.00309644
0.00102703
0.00838567
0.00838572
0.00838592
0.00838629
0.00838685
0.00838758
0.00838853
0.00838971
0.0083912
0.00839304
0.00839533
0.00839822
0.00840189
0.0084066
0.00841275
0.00842088
0.00843174
0.00844636
0.00846609
0.00849246
0.00852688
0.00856969
0.008618
0.00865985
0.00867263
0.00860684
0.00837506
0.00784362
0.00684088
0.00521746
0.00303695
0.00101326
0.00838661
0.00838666
0.00838689
0.0083873
0.0083879
0.00838869
0.0083897
0.00839097
0.00839256
0.00839455
0.00839704
0.00840016
0.00840414
0.00840927
0.00841595
0.00842477
0.00843652
0.00845229
0.00847339
0.00850133
0.0085373
0.00858114
0.00862922
0.00866757
0.00867314
0.00859323
0.00834014
0.0077823
0.00675554
0.00512483
0.00297054
0.000998114
0.00838778
0.00838785
0.0083881
0.00838856
0.00838921
0.00839008
0.00839117
0.00839255
0.00839428
0.00839645
0.00839916
0.00840259
0.00840697
0.0084126
0.00841995
0.00842962
0.00844247
0.00845959
0.00848232
0.00851202
0.00854962
0.00859435
0.0086415
0.00867546
0.00867177
0.00857503
0.00829736
0.00771008
0.00665763
0.0050208
0.00289735
0.000981678
0.00838925
0.00838932
0.00838962
0.00839013
0.00839085
0.0083918
0.00839301
0.00839453
0.00839644
0.00839883
0.00840183
0.00840564
0.00841051
0.00841679
0.00842495
0.00843568
0.00844984
0.00846856
0.00849313
0.00852477
0.008564
0.00860931
0.0086545
0.00868312
0.00866745
0.00855089
0.00824521
0.00762551
0.00654616
0.00490504
0.00281752
0.000964037
0.00839107
0.00839117
0.0083915
0.00839207
0.00839289
0.00839396
0.00839531
0.00839702
0.00839916
0.00840184
0.00840521
0.00840949
0.00841497
0.00842204
0.00843122
0.00844322
0.00845896
0.00847954
0.00850617
0.00853984
0.00858056
0.0086259
0.00866799
0.00868945
0.00865899
0.00851916
0.00818187
0.00752699
0.00642008
0.00477726
0.00273127
0.000945287
0.00839335
0.00839346
0.00839385
0.00839451
0.00839543
0.00839665
0.0083982
0.00840015
0.00840259
0.00840565
0.0084095
0.00841438
0.00842063
0.00842867
0.0084391
0.00845263
0.0084702
0.0084929
0.00852177
0.00855746
0.00859935
0.008644
0.00868116
0.00869307
0.00864472
0.00847776
0.00810521
0.0074127
0.00627827
0.00463719
0.00263884
0.000925522
0.00839622
0.00839636
0.00839682
0.00839759
0.00839866
0.00840007
0.00840186
0.00840413
0.00840696
0.00841051
0.00841497
0.00842062
0.00842782
0.00843708
0.008449
0.00846435
0.00848405
0.00850908
0.00854027
0.0085778
0.00862025
0.00866291
0.00869305
0.00869257
0.00862248
0.00842423
0.00801278
0.00728065
0.0061196
0.00448463
0.00254053
0.000904846
0.00839987
0.00840007
0.00840062
0.00840153
0.0084028
0.00840446
0.00840658
0.00840924
0.00841259
0.00841677
0.00842202
0.00842865
0.00843706
0.00844778
0.00846149
0.00847894
0.00850101
0.00852851
0.00856193
0.00860084
0.00864278
0.0086813
0.00870276
0.00868549
0.00858946
0.00835557
0.00790176
0.00712867
0.00594291
0.0043195
0.0024367
0.000883357
0.00840461
0.00840487
0.00840556
0.00840666
0.00840819
0.00841018
0.00841272
0.00841592
0.00841992
0.00842493
0.0084312
0.00843906
0.00844896
0.00846147
0.00847724
0.00849704
0.00852163
0.00855156
0.00858685
0.00862626
0.00866617
0.00869786
0.0087073
0.00866897
0.00854225
0.00826821
0.00776894
0.00695445
0.00574711
0.00414176
0.00232778
0.000861164
0.00841085
0.00841121
0.00841208
0.00841344
0.00841531
0.00841775
0.00842085
0.00842474
0.0084296
0.00843565
0.0084432
0.00845259
0.00846431
0.0084789
0.00849702
0.00851932
0.00854641
0.00857844
0.00861481
0.00865327
0.00868873
0.00871057
0.00870359
0.00863921
0.00847651
0.00815793
0.00761075
0.00675556
0.0055312
0.00395162
0.00221425
0.000838361
0.00841919
0.00841969
0.00842081
0.00842252
0.00842485
0.00842788
0.0084317
0.00843649
0.00844244
0.00844982
0.00845893
0.00847018
0.00848401
0.00850097
0.00852158
0.00854638
0.00857559
0.00860891
0.0086449
0.00868019
0.00870767
0.00871604
0.00868698
0.00859106
0.00838704
0.00801987
0.00742331
0.00652959
0.00529432
0.00374936
0.00209671
0.000815053
0.00843051
0.00843121
0.00843266
0.00843483
0.00843777
0.00844156
0.00844633
0.00845226
0.00845957
0.00846854
0.00847952
0.00849288
0.00850905
0.00852847
0.00855152
0.00857839
0.00860889
0.00864197
0.00867527
0.00870401
0.0087191
0.00870898
0.0086518
0.00851822
0.00826757
0.00784853
0.00720248
0.00627414
0.00503589
0.00353561
0.00197579
0.000791323
0.00844602
0.008447
0.00844888
0.00845165
0.00845537
0.00846012
0.00846606
0.00847337
0.0084823
0.00849312
0.00850616
0.00852176
0.00854026
0.00856192
0.00858683
0.00861477
0.00864487
0.00867525
0.00870246
0.00871929
0.00871798
0.00868208
0.00859029
0.00841275
0.00811076
0.0076378
0.00694397
0.00598709
0.00475566
0.0033111
0.00185222
0.000767258
0.0084673
0.00846864
0.00847107
0.00847459
0.00847925
0.00848515
0.00849244
0.00850132
0.00851201
0.00852477
0.00853984
0.00855747
0.00857782
0.00860085
0.00862627
0.00865327
0.00868019
0.008704
0.00871929
0.00872029
0.00869448
0.00862591
0.00849246
0.00826517
0.00790822
0.00738114
0.0066436
0.00566665
0.00445381
0.00307704
0.00172679
0.000742911
0.00849619
0.00849796
0.00850102
0.00850538
0.00851107
0.00851819
0.00852687
0.00853729
0.00854962
0.00856401
0.00858058
0.00859938
0.00862028
0.00864281
0.0086662
0.00868877
0.00870769
0.00871913
0.008718
0.0086945
0.00863663
0.00852768
0.00834591
0.00806402
0.00765053
0.0070717
0.00629743
0.00531169
0.00413118
0.0028348
0.00160039
0.000718335
0.00853417
0.00853638
0.00854005
0.00854518
0.00855178
0.00855992
0.00856969
0.00858115
0.00859437
0.00860933
0.00862594
0.00864404
0.00866297
0.00868137
0.00869793
0.00871065
0.00871612
0.00870907
0.00868217
0.00862597
0.00852771
0.00837094
0.00813509
0.00779618
0.00732731
0.0067027
0.00590221
0.00492189
0.00378929
0.00258631
0.00147392
0.00069354
0.00858081
0.00858327
0.00858725
0.00859272
0.00859965
0.00860811
0.00861801
0.00862924
0.00864153
0.00865454
0.00866805
0.00868123
0.00869313
0.00870286
0.0087074
0.00870372
0.00868713
0.00865198
0.00859045
0.0084926
0.00834592
0.00813507
0.00784217
0.00744666
0.00692801
0.00626767
0.00545561
0.00449808
0.00343054
0.00233372
0.00134841
0.000668527
0.00863012
0.00863223
0.00863561
0.00864022
0.00864596
0.00865257
0.00865988
0.00866761
0.00867551
0.00868318
0.00868953
0.00869316
0.00869269
0.00868562
0.00866912
0.0086394
0.00859129
0.00851848
0.00841304
0.00826538
0.00806414
0.00779615
0.00744664
0.00700017
0.00644187
0.00576137
0.00495666
0.00404238
0.00305819
0.00207967
0.00122481
0.000643248
0.00866243
0.0086633
0.00866479
0.00866677
0.00866898
0.00867109
0.00867267
0.0086732
0.00867184
0.00866754
0.0086591
0.00864484
0.00862262
0.00858964
0.00854245
0.00847676
0.00838734
0.00826793
0.00811117
0.00790861
0.00765078
0.00732745
0.00692793
0.0064418
0.00586076
0.00518068
0.00440685
0.0035586
0.00267641
0.00182687
0.00110402
0.000617599
0.00863942
0.00863711
0.00863403
0.00862995
0.00862445
0.008617
0.0086069
0.00859331
0.00857512
0.008551
0.00851929
0.00847791
0.00842441
0.00835578
0.00826846
0.00815823
0.00802025
0.00784898
0.00763831
0.00738165
0.00707213
0.00670294
0.00626773
0.00576126
0.00518062
0.00452747
0.00381108
0.00305303
0.00229042
0.00157822
0.000986622
0.000591286
0.00847806
0.00847007
0.00845903
0.00844464
0.00842636
0.00840349
0.00837514
0.00834023
0.00829747
0.00824534
0.00818202
0.00810539
0.00801299
0.007902
0.00776922
0.00761109
0.00742372
0.00720296
0.00694452
0.00664417
0.00629796
0.00590262
0.00545579
0.00495669
0.00440674
0.00381101
0.00318072
0.00253578
0.00190726
0.00133677
0.000872853
0.000563691
0.00804068
0.00802457
0.0080024
0.00797387
0.00793844
0.00789536
0.00784371
0.00778241
0.0077102
0.00762565
0.00752715
0.00741289
0.00728086
0.00712892
0.00695473
0.0067559
0.00652998
0.0062746
0.0059876
0.00566719
0.00531221
0.00492234
0.00449837
0.00404248
0.00355857
0.00305293
0.00253573
0.0020228
0.00153692
0.00110676
0.000763004
0.000533875
0.0071317
0.00710695
0.00707313
0.00703007
0.00697742
0.00691461
0.00684096
0.00675564
0.00665774
0.00654629
0.00642023
0.00627844
0.00611979
0.00594313
0.00574736
0.00553148