/*--------------------------------*- C++ -*----------------------------------*\
  =========                 |
  \\      /  F ield         | OpenFOAM: The Open Source CFD Toolbox
   \\    /   O peration     | Website:  https://openfoam.org
    \\  /    A nd           | Version:  11
     \\/     M anipulation  |
\*---------------------------------------------------------------------------*/
FoamFile
{
    format      ascii;
    class       volScalarField;
    location    "131";
    object      k;
}
// * * * * * * * * * * * * * * * * * * * * * * * * * * * * * * * * * * * * * //

dimensions      [0 2 -2 0 0 0 0];

internalField   nonuniform List<scalar> 
65536
(
0.00321981
0.00321981
0.00321981
0.00321981
0.00321981
0.00321982
0.00321982
0.00321983
0.00321984
0.00321985
0.00321987
0.00321988
0.0032199
0.00321993
0.00321996
0.00322001
0.00322006
0.00322014
0.00322026
0.00322044
0.0032207
0.00322112
0.00322176
0.00322276
0.00322421
0.00322603
0.0032272
0.00322396
0.00320243
0.0031169
0.00281333
0.00171081
0.00321981
0.00321981
0.00321981
0.00321981
0.00321981
0.00321982
0.00321982
0.00321983
0.00321984
0.00321985
0.00321986
0.00321988
0.0032199
0.00321993
0.00321996
0.00322
0.00322006
0.00322014
0.00322026
0.00322044
0.00322071
0.00322113
0.00322179
0.0032228
0.00322426
0.00322608
0.0032272
0.00322375
0.00320163
0.00311468
0.00280823
0.00170309
0.00321981
0.00321981
0.00321981
0.00321981
0.00321981
0.00321982
0.00321982
0.00321983
0.00321984
0.00321985
0.00321987
0.00321988
0.0032199
0.00321993
0.00321996
0.00322001
0.00322007
0.00322015
0.00322028
0.00322046
0.00322074
0.00322117
0.00322185
0.00322288
0.00322437
0.00322619
0.00322723
0.00322347
0.00320051
0.00311162
0.00280149
0.00169289
0.00321981
0.00321981
0.00321981
0.00321981
0.00321982
0.00321982
0.00321983
0.00321984
0.00321984
0.00321986
0.00321987
0.00321989
0.00321991
0.00321994
0.00321997
0.00322002
0.00322008
0.00322017
0.0032203
0.00322049
0.00322078
0.00322124
0.00322194
0.00322301
0.00322452
0.00322634
0.00322727
0.00322311
0.00319906
0.0031077
0.00279294
0.00168023
0.00321981
0.00321981
0.00321981
0.00321982
0.00321982
0.00321983
0.00321983
0.00321984
0.00321985
0.00321986
0.00321988
0.00321989
0.00321992
0.00321995
0.00321998
0.00322003
0.0032201
0.00322019
0.00322033
0.00322053
0.00322084
0.00322133
0.00322206
0.00322317
0.00322472
0.00322652
0.00322732
0.00322265
0.00319725
0.00310284
0.00278252
0.00166508
0.00321982
0.00321982
0.00321982
0.00321982
0.00321983
0.00321983
0.00321984
0.00321985
0.00321986
0.00321987
0.00321988
0.0032199
0.00321993
0.00321996
0.00322
0.00322005
0.00322012
0.00322022
0.00322037
0.00322059
0.00322092
0.00322144
0.00322222
0.00322338
0.00322497
0.00322673
0.00322737
0.00322205
0.003195
0.00309697
0.00277014
0.00164739
0.00321983
0.00321982
0.00321983
0.00321983
0.00321983
0.00321984
0.00321985
0.00321986
0.00321987
0.00321988
0.00321989
0.00321991
0.00321994
0.00321997
0.00322002
0.00322007
0.00322015
0.00322026
0.00322042
0.00322066
0.00322102
0.00322157
0.00322241
0.00322362
0.00322527
0.00322698
0.00322738
0.00322128
0.00319225
0.00308995
0.00275564
0.00162712
0.00321983
0.00321983
0.00321983
0.00321984
0.00321984
0.00321985
0.00321986
0.00321987
0.00321988
0.00321989
0.00321991
0.00321993
0.00321996
0.00321999
0.00322004
0.0032201
0.00322019
0.00322031
0.00322049
0.00322075
0.00322115
0.00322175
0.00322264
0.00322392
0.00322562
0.00322725
0.00322736
0.00322029
0.0031889
0.00308166
0.00273888
0.0016042
0.00321984
0.00321984
0.00321984
0.00321985
0.00321985
0.00321986
0.00321987
0.00321988
0.00321989
0.00321991
0.00321992
0.00321995
0.00321998
0.00322002
0.00322007
0.00322014
0.00322023
0.00322037
0.00322057
0.00322086
0.0032213
0.00322196
0.00322292
0.00322427
0.00322601
0.00322755
0.00322726
0.00321901
0.00318484
0.00307192
0.00271965
0.00157854
0.00321985
0.00321985
0.00321985
0.00321986
0.00321986
0.00321987
0.00321988
0.00321989
0.00321991
0.00321992
0.00321994
0.00321997
0.00322
0.00322005
0.0032201
0.00322018
0.00322029
0.00322045
0.00322067
0.00322101
0.0032215
0.00322222
0.00322326
0.00322469
0.00322645
0.00322786
0.00322704
0.00321736
0.00317993
0.00306052
0.00269773
0.00155006
0.00321987
0.00321987
0.00321987
0.00321987
0.00321988
0.00321989
0.0032199
0.00321991
0.00321992
0.00321994
0.00321997
0.00322
0.00322004
0.00322008
0.00322015
0.00322024
0.00322037
0.00322055
0.00322081
0.00322119
0.00322174
0.00322253
0.00322366
0.00322516
0.00322693
0.00322817
0.00322666
0.00321524
0.00317399
0.00304721
0.00267287
0.00151868
0.00321988
0.00321988
0.00321988
0.00321989
0.0032199
0.0032199
0.00321992
0.00321993
0.00321995
0.00321997
0.00322
0.00322003
0.00322008
0.00322014
0.00322021
0.00322032
0.00322047
0.00322068
0.00322098
0.00322141
0.00322203
0.00322292
0.00322414
0.00322572
0.00322745
0.00322842
0.00322604
0.00321251
0.0031668
0.00303171
0.00264476
0.00148431
0.0032199
0.0032199
0.0032199
0.00321991
0.00321992
0.00321993
0.00321994
0.00321996
0.00321998
0.00322
0.00322004
0.00322008
0.00322013
0.0032202
0.00322029
0.00322042
0.0032206
0.00322084
0.0032212
0.0032217
0.0032224
0.00322339
0.00322471
0.00322635
0.00322798
0.00322858
0.00322508
0.00320899
0.00315809
0.00301367
0.00261307
0.00144684
0.00321993
0.00321993
0.00321993
0.00321994
0.00321995
0.00321996
0.00321997
0.00321999
0.00322002
0.00322005
0.00322009
0.00322014
0.0032202
0.00322029
0.0032204
0.00322056
0.00322077
0.00322106
0.00322148
0.00322206
0.00322286
0.00322395
0.00322537
0.00322705
0.00322849
0.00322857
0.00322364
0.00320446
0.00314754
0.00299266
0.00257739
0.00140618
0.00321996
0.00321996
0.00321997
0.00321997
0.00321998
0.00322
0.00322002
0.00322004
0.00322007
0.0032201
0.00322015
0.00322021
0.00322029
0.0032204
0.00322054
0.00322073
0.00322099
0.00322135
0.00322184
0.00322251
0.00322342
0.00322463
0.00322613
0.00322779
0.00322898
0.00322828
0.00322153
0.00319862
0.00313472
0.0029682
0.0025373
0.00136222
0.00322001
0.00322
0.00322001
0.00322002
0.00322003
0.00322005
0.00322007
0.0032201
0.00322014
0.00322018
0.00322024
0.00322032
0.00322042
0.00322055
0.00322073
0.00322097
0.00322129
0.00322172
0.0032223
0.00322308
0.00322411
0.00322542
0.00322697
0.00322853
0.00322933
0.00322756
0.0032185
0.00319108
0.00311913
0.00293969
0.00249227
0.00131486
0.00322006
0.00322006
0.00322007
0.00322008
0.0032201
0.00322012
0.00322015
0.00322019
0.00322023
0.00322029
0.00322037
0.00322047
0.00322059
0.00322076
0.00322099
0.00322129
0.00322168
0.00322221
0.00322289
0.00322379
0.00322494
0.00322634
0.0032279
0.00322922
0.00322942
0.00322619
0.0032142
0.00318134
0.00310011
0.00290642
0.00244173
0.00126401
0.00322014
0.00322014
0.00322015
0.00322017
0.00322019
0.00322022
0.00322026
0.00322031
0.00322037
0.00322045
0.00322055
0.00322068
0.00322084
0.00322106
0.00322134
0.00322172
0.0032222
0.00322283
0.00322364
0.00322467
0.00322592
0.00322737
0.00322883
0.00322975
0.00322902
0.00322383
0.00320813
0.00316876
0.00307688
0.00286755
0.00238502
0.00120958
0.00322026
0.00322026
0.00322028
0.0032203
0.00322033
0.00322037
0.00322042
0.00322049
0.00322057
0.00322067
0.00322081
0.00322098
0.0032212
0.00322147
0.00322183
0.0032223
0.00322289
0.00322364
0.00322458
0.00322572
0.00322704
0.00322846
0.00322965
0.00322995
0.00322783
0.00322001
0.00319964
0.00315247
0.00304843
0.00282206
0.00232138
0.00115148
0.00322043
0.00322044
0.00322046
0.00322049
0.00322053
0.00322059
0.00322066
0.00322075
0.00322086
0.00322101
0.00322119
0.00322141
0.0032217
0.00322206
0.00322251
0.00322308
0.00322379
0.00322466
0.00322571
0.00322693
0.00322825
0.00322949
0.00323017
0.00322944
0.00322535
0.00321404
0.00318782
0.00313136
0.00301352
0.00276871
0.00224998
0.00108967
0.0032207
0.00322071
0.00322074
0.00322078
0.00322084
0.00322092
0.00322102
0.00322115
0.0032213
0.0032215
0.00322174
0.00322203
0.0032224
0.00322286
0.00322342
0.00322411
0.00322494
0.00322592
0.00322704
0.00322825
0.00322941
0.00323018
0.00323003
0.00322771
0.00322084
0.00320493
0.00317144
0.00310398
0.00297054
0.00270606
0.00216981
0.00102408
0.00322111
0.00322113
0.00322117
0.00322124
0.00322132
0.00322143
0.00322157
0.00322174
0.00322196
0.00322222
0.00322253
0.00322292
0.00322339
0.00322395
0.00322462
0.00322542
0.00322634
0.00322737
0.00322846
0.00322949
0.00323018
0.00323019
0.00322861
0.00322387
0.00321316
0.00319126
0.00314878
0.00306839
0.00291753
0.0026323
0.00207979
0.000954706
0.00322176
0.00322179
0.00322185
0.00322194
0.00322206
0.00322221
0.0032224
0.00322264
0.00322292
0.00322325
0.00322366
0.00322414
0.00322471
0.00322537
0.00322612
0.00322697
0.0032279
0.00322883
0.00322965
0.00323017
0.00323005
0.00322862
0.00322474
0.00321652
0.00320054
0.00317096
0.0031175
0.00302207
0.00285193
0.00254526
0.00197862
0.000881552
0.00322275
0.0032228
0.00322288
0.00322301
0.00322317
0.00322337
0.00322362
0.00322392
0.00322427
0.00322468
0.00322516
0.00322571
0.00322634
0.00322705
0.00322779
0.00322853
0.00322921
0.00322975
0.00322994
0.00322944
0.00322771
0.00322388
0.00321653
0.00320329
0.00318028
0.00314091
0.00307426
0.0029616
0.00277053
0.00244229
0.00186487
0.000804666
0.0032242
0.00322426
0.00322437
0.00322452
0.00322472
0.00322497
0.00322527
0.00322562
0.00322601
0.00322645
0.00322693
0.00322745
0.00322797
0.00322849
0.00322898
0.00322932
0.00322941
0.00322901
0.00322781
0.00322534
0.00322083
0.00321316
0.00320056
0.00318029
0.00314792
0.00309642
0.00301415
0.00288225
0.00266908
0.00232019
0.00173692
0.000724136
0.00322602
0.00322608
0.00322619
0.00322633
0.00322651
0.00322673
0.00322697
0.00322724
0.00322754
0.00322786
0.00322816
0.00322842
0.00322857
0.00322857
0.00322828
0.00322755
0.00322617
0.00322381
0.00321998
0.00321401
0.00320491
0.00319125
0.00317096
0.00314093
0.00309642
0.00302998
0.00292984
0.00277714
0.00254186
0.00217491
0.00159296
0.00064012
0.00322719
0.0032272
0.00322723
0.00322727
0.00322732
0.00322736
0.00322738
0.00322736
0.00322725
0.00322704
0.00322666
0.00322604
0.00322508
0.00322364
0.00322153
0.00321849
0.00321418
0.0032081
0.0031996
0.00318778
0.00317139
0.00314875
0.00311748
0.00307425
0.00301417
0.00292985
0.00280974
0.00263592
0.00238058
0.00200117
0.00143094
0.00055288
0.00322395
0.00322375
0.00322347
0.00322311
0.00322265
0.00322205
0.00322128
0.00322029
0.00321901
0.00321736
0.00321524
0.00321251
0.00320899
0.00320446
0.00319861
0.00319106
0.00318132
0.00316873
0.00315243
0.00313131
0.00310393
0.00306835
0.00302204
0.00296159
0.00288225
0.00277715
0.00263592
0.00244252
0.00217275
0.00179132
0.00124828
0.000462814
0.00320242
0.00320162
0.0032005
0.00319906
0.00319724
0.003195
0.00319225
0.0031889
0.00318484
0.00317993
0.00317398
0.00316679
0.00315809
0.00314753
0.00313471
0.00311911
0.00310009
0.00307685
0.00304839
0.00301347
0.00297049
0.00291748
0.0028519
0.00277051
0.00266908
0.00254186
0.00238058
0.00217275
0.00189945
0.00153381
0.00104102
0.000370371
0.00311689
0.00311468
0.00311162
0.00310769
0.00310284
0.00309696
0.00308995
0.00308166
0.00307191
0.00306051
0.00304721
0.00303171
0.00301367
0.00299266
0.00296819
0.00293967
0.0029064
0.00286751
0.00282202
0.00276867
0.00270602
0.00263226
0.00254523
0.00244227
0.00232019
0.00217491
0.00200117
0.00179132
0.00153381
0.00121157
0.000802591
0.000275595
0.00281333
0.00280823
0.00280148
0.00279294
0.00278252
0.00277014
0.00275564
0.00273888
0.00271965
0.00269773
0.00267287
0.00264476
0.00261307
0.00257739
0.00253729
0.00249226
0.00244171
0.002385
0.00232136
0.00224995
0.00216978
0.00207976
0.0019786
0.00186486
0.00173692
0.00159296
0.00143094
0.00124828
0.00104101
0.000802586
0.000523
0.000178833
0.00171081
0.00170309
0.00169289
0.00168023
0.00166508
0.00164739
0.00162712
0.00160419
0.00157853
0.00155006
0.00151868
0.00148431
0.00144684
0.00140618
0.00136221
0.00131485
0.001264
0.00120957
0.00115147
0.00108966
0.00102407
0.000954697
0.000881547
0.000804665
0.00072414
0.000640128
0.000552887
0.000462816
0.000370368
0.000275591
0.000178831
6.78616e-05
0.000923608
0.000923607
0.000923611
0.000923619
0.000923632
0.00092365
0.000923672
0.000923699
0.000923733
0.000923774
0.000923825
0.000923889
0.000923968
0.00092407
0.000924201
0.000924374
0.000924608
0.000924933
0.000925393
0.000926056
0.00092702
0.000928411
0.000930356
0.000932883
0.000935641
0.000937092
0.000933653
0.000916397
0.000867407
0.000753966
0.00052521
0.000144887
0.000923607
0.000923605
0.000923609
0.000923618
0.000923631
0.000923649
0.000923671
0.000923698
0.000923732
0.000923774
0.000923826
0.00092389
0.00092397
0.000924073
0.000924206
0.000924381
0.000924619
0.00092495
0.000925418
0.000926094
0.000927075
0.000928487
0.000930457
0.000932999
0.000935735
0.000937099
0.000933412
0.000915674
0.000865939
0.000751678
0.000522674
0.000143881
0.00092361
0.000923609
0.000923613
0.000923622
0.000923635
0.000923653
0.000923676
0.000923704
0.000923739
0.000923781
0.000923834
0.000923899
0.000923982
0.000924087
0.000924223
0.000924404
0.00092465
0.00092499
0.000925474
0.00092617
0.00092718
0.000928628
0.000930637
0.000933206
0.000935899
0.000937141
0.000933101
0.000914683
0.000863894
0.000748423
0.000518896
0.000142215
0.000923619
0.000923618
0.000923622
0.000923631
0.000923645
0.000923664
0.000923687
0.000923716
0.000923751
0.000923795
0.00092385
0.000923918
0.000924003
0.000924112
0.000924254
0.000924442
0.000924698
0.000925054
0.000925559
0.000926286
0.000927335
0.000928832
0.000930892
0.000933495
0.000936126
0.000937205
0.000932703
0.00091341
0.000861286
0.000744294
0.00051414
0.000140155
0.000923632
0.000923631
0.000923636
0.000923646
0.00092366
0.00092368
0.000923704
0.000923734
0.00092377
0.000923816
0.000923873
0.000923944
0.000924033
0.000924148
0.000924297
0.000924496
0.000924766
0.000925142
0.000925676
0.000926441
0.000927541
0.0009291
0.000931223
0.000933864
0.000936409
0.000937273
0.000932189
0.000911818
0.000858076
0.000739281
0.000508445
0.000137734
0.00092365
0.000923649
0.000923654
0.000923665
0.00092368
0.0009237
0.000923726
0.000923757
0.000923796
0.000923843
0.000923903
0.000923978
0.000924073
0.000924194
0.000924353
0.000924566
0.000924855
0.000925257
0.000925827
0.000926641
0.000927804
0.000929438
0.000931635
0.000934315
0.000936741
0.000937327
0.000931524
0.000909854
0.000854207
0.00073334
0.000501801
0.000134966
0.000923673
0.000923672
0.000923677
0.000923689
0.000923705
0.000923726
0.000923753
0.000923787
0.000923828
0.000923878
0.000923942
0.000924022
0.000924123
0.000924254
0.000924426
0.000924655
0.000924968
0.000925403
0.000926018
0.000926893
0.000928132
0.000929853
0.000932131
0.000934846
0.000937112
0.00093734
0.000930661
0.000907454
0.000849605
0.000726412
0.000494188
0.000131864
0.0009237
0.0009237
0.000923706
0.000923718
0.000923735
0.000923758
0.000923787
0.000923823
0.000923868
0.000923923
0.000923991
0.000924077
0.000924187
0.000924329
0.000924517
0.000924768
0.000925111
0.000925587
0.000926258
0.000927205
0.000928534
0.000930354
0.000932715
0.000935448
0.000937529
0.000937275
0.000929541
0.000904538
0.000844185
0.000718428
0.000485583
0.000128442
0.000923734
0.000923734
0.00092374
0.000923753
0.000923772
0.000923797
0.000923829
0.000923868
0.000923917
0.000923977
0.000924052
0.000924147
0.000924268
0.000924424
0.000924631
0.00092491
0.000925291
0.000925818
0.000926556
0.00092759
0.000929023
0.000930951
0.000933392
0.000936108
0.00093798
0.000937086
0.000928093
0.000901012
0.000837845
0.00070931
0.000475963
0.000124713
0.000923775
0.000923776
0.000923783
0.000923797
0.000923817
0.000923845
0.00092388
0.000923923
0.000923977
0.000924044
0.000924128
0.000924234
0.000924369
0.000924544
0.000924777
0.00092509
0.000925517
0.000926108
0.000926928
0.000928064
0.000929614
0.000931658
0.000934169
0.000936825
0.000938417
0.00093672
0.000926227
0.000896763
0.000830468
0.000698972
0.000465303
0.000120698
0.000923826
0.000923827
0.000923835
0.000923851
0.000923874
0.000923904
0.000923943
0.000923992
0.000924052
0.000924128
0.000924223
0.000924343
0.000924497
0.000924697
0.000924962
0.000925318
0.000925804
0.000926471
0.000927389
0.000928643
0.000930325
0.000932489
0.000935052
0.000937576
0.000938791
0.000936098
0.000923832
0.000891656
0.000821923
0.00068732
0.00045358
0.000116414
0.000923889
0.000923891
0.000923901
0.000923919
0.000923944
0.000923979
0.000924023
0.000924078
0.000924146
0.000924233
0.000924342
0.000924481
0.000924659
0.000924892
0.000925199
0.00092561
0.000926168
0.000926927
0.00092796
0.00092935
0.000931174
0.000933457
0.00093605
0.000938322
0.000939017
0.000935115
0.000920768
0.00088553
0.000812056
0.00067425
0.000440774
0.000111884
0.000923969
0.000923972
0.000923983
0.000924004
0.000924034
0.000924074
0.000924124
0.000924188
0.000924267
0.000924368
0.000924496
0.000924659
0.00092487
0.000925143
0.000925505
0.000925985
0.000926632
0.000927502
0.000928667
0.000930206
0.000932177
0.000934559
0.000937136
0.000939039
0.000939027
0.000933638
0.000916863
0.000878194
0.000800694
0.000659652
0.000426864
0.000107133
0.00092407
0.000924074
0.000924088
0.000924113
0.000924149
0.000924196
0.000924255
0.00092433
0.000924425
0.000924544
0.000924696
0.000924891
0.000925143
0.000925471
0.0009259
0.000926469
0.000927223
0.000928224
0.00092954
0.000931237
0.000933344
0.000935782
0.00093823
0.000939713
0.000938679
0.00093149
0.000911903
0.000869424
0.000787642
0.000643406
0.000411838
0.000102184
0.000924201
0.000924207
0.000924225
0.000924255
0.000924298
0.000924355
0.000924427
0.000924518
0.000924632
0.000924777
0.000924962
0.000925198
0.000925503
0.000925899
0.000926416
0.000927092
0.000927977
0.000929128
0.000930609
0.000932465
0.000934685
0.000937116
0.000939275
0.000940156
0.000937815
0.000928446
0.000905628
0.000858955
0.00077268
0.000625391
0.000395685
9.70659e-05
0.000924374
0.000924383
0.000924406
0.000924444
0.000924497
0.000924567
0.000924656
0.000924769
0.000924911
0.000925091
0.000925319
0.00092561
0.000925984
0.000926467
0.000927091
0.000927897
0.000928932
0.000930252
0.000931902
0.0009339
0.000936183
0.000938517
0.000940188
0.000940215
0.000936203
0.000924219
0.000897718
0.000846481
0.000755565
0.000605473
0.000378404
9.18055e-05
0.000924608
0.000924621
0.000924651
0.0009247
0.000924767
0.000924856
0.000924969
0.000925112
0.000925292
0.000925518
0.000925805
0.000926168
0.00092663
0.000927221
0.000927974
0.00092893
0.000930135
0.000931629
0.000933438
0.000935535
0.00093778
0.000939823
0.00094085
0.000939618
0.000933526
0.000918443
0.000887789
0.000831645
0.000736029
0.000583527
0.000360001
8.64314e-05
0.000924932
0.000924951
0.000924992
0.000925055
0.000925143
0.000925258
0.000925404
0.000925588
0.000925819
0.000926109
0.000926472
0.000926928
0.000927501
0.000928222
0.000929125
0.000930249
0.000931628
0.000933286
0.00093521
0.000937319
0.000939396
0.000940874
0.00094098
0.000938042
0.000929365
0.000910655
0.000875376
0.000814041
0.000713782
0.000559421
0.000340497
8.09726e-05
0.000925391
0.000925419
0.000925475
0.00092556
0.000925676
0.000925827
0.000926019
0.000926258
0.000926557
0.000926928
0.000927389
0.000927961
0.000928667
0.000929539
0.000930606
0.000931899
0.000933435
0.000935209
0.000937157
0.000939126
0.000940771
0.000941431
0.000940143
0.00093501
0.000923178
0.000900282
0.000859931
0.000793205
0.000688514
0.000533043
0.000319921
7.54571e-05
0.000926054
0.000926095
0.000926171
0.000926286
0.000926441
0.000926641
0.000926893
0.000927205
0.000927591
0.000928064
0.000928643
0.00092935
0.000930206
0.000931236
0.000932463
0.000933898
0.000935532
0.000937317
0.000939124
0.000940713
0.00094155
0.000941034
0.000937791
0.000929861
0.000914257
0.000886613
0.000840805
0.000768624
0.000659903
0.00050428
0.000298328
6.99122e-05
0.000927017
0.000927075
0.00092718
0.000927335
0.000927541
0.000927804
0.000928132
0.000928534
0.000929022
0.000929614
0.000930325
0.000931174
0.000932176
0.000933343
0.000934684
0.000936181
0.000937777
0.000939393
0.00094077
0.00094155
0.000941275
0.000938928
0.000933107
0.000921714
0.000901692
0.000868784
0.00081725
0.000739732
0.000627624
0.000473064
0.000275782
6.43626e-05
0.000928407
0.000928488
0.000928629
0.000928832
0.0009291
0.000929437
0.000929852
0.000930353
0.00093095
0.000931657
0.000932488
0.000933455
0.000934558
0.00093578
0.000937114
0.000938516
0.000939821
0.000940872
0.000941429
0.000941033
0.000938926
0.000934077
0.000924958
0.000909377
0.000884329
0.000845743
0.000788401
0.000705925
0.000591369
0.000439343
0.000252381
5.88303e-05
0.000930352
0.000930457
0.000930637
0.000930891
0.000931222
0.000931633
0.000932129
0.000932713
0.00093339
0.000934167
0.00093505
0.000936048
0.000937134
0.000938228
0.000939273
0.000940186
0.000940848
0.000940978
0.000940141
0.000937788
0.000933109
0.000924959
0.000911734
0.000891284
0.000860685
0.000816226
0.000753279
0.000666568
0.000550864
0.000403142
0.000228241
5.33324e-05
0.000932878
0.000932998
0.000933205
0.000933493
0.000933862
0.000934313
0.000934844
0.000935446
0.000936106
0.000936822
0.000937574
0.000938319
0.000939037
0.00093971
0.000940154
0.000940213
0.000939615
0.000938039
0.000935007
0.000929859
0.000921713
0.000909378
0.000891282
0.000865348
0.000828928
0.00077869
0.00071077
0.00062101
0.000505892
0.000364542
0.000203521
4.78821e-05
0.000935635
0.000935734
0.000935898
0.000936125
0.000936407
0.000936738
0.00093711
0.000937526
0.000937977
0.000938414
0.000938787
0.000939013
0.000939023
0.000938676
0.000937812
0.0009362
0.000933523
0.000929362
0.000923175
0.000914253
0.00090169
0.000884325
0.000860688
0.000828927
0.000786718
0.000731314
0.000659593
0.000568583
0.000456314
0.000323729
0.00017841
4.24872e-05
0.000937087
0.000937098
0.00093714
0.000937203
0.000937271
0.000937324
0.000937337
0.000937271
0.000937082
0.000936716
0.000936094
0.000935111
0.000933634
0.000931486
0.000928442
0.000924215
0.000918439
0.000910652
0.000900278
0.00088661
0.000868781
0.000845742
0.000816223
0.00077869
0.00073131
0.000671946
0.000598357
0.000508607
0.000402066
0.000280958
0.000153135
3.7153e-05
0.000933647
0.00093341
0.000933099
0.0009327
0.000932186
0.00093152
0.000930657
0.000929537
0.000928088
0.000926222
0.000923827
0.000920763
0.000916858
0.000911899
0.000905623
0.000897713
0.000887784
0.000875373
0.000859928
0.000840803
0.000817248
0.0007884
0.000753279
0.000710765
0.000659591
0.000598353
0.000525641
0.000440485
0.000343163
0.000236551
0.000127925
3.18784e-05
0.000916391
0.000915672
0.00091468
0.000913407
0.000911814
0.00090985
0.000907449
0.000904533
0.000901008
0.000896758
0.000891651
0.000885525
0.000878189
0.000869419
0.00085895
0.000846476
0.00083164
0.000814036
0.000793202
0.000768623
0.000739733
0.000705927
0.00066657
0.000621011
0.000568579
0.000508603
0.000440481
0.00036397
0.000279839
0.000190857
0.000102963
2.66437e-05
0.000867402
0.000865936
0.000863892
0.000861283
0.000858073
0.000854203
0.000849601
0.00084418
0.00083784
0.000830464
0.000821918
0.000812051
0.00080069
0.000787637
0.000772675
0.00075556
0.000736024
0.000713777
0.00068851
0.000659902
0.000627627
0.000591374
0.000550869
0.000505896
0.000456315
0.000402061
0.000343158
0.000279835
0.000212896
0.000144398
7.83648e-05
2.13829e-05
0.000753961
0.000751676
0.000748421
0.000744292
0.000739279
0.000733337
0.000726409
0.000718424
0.000709306
0.000698968
0.000687317
0.000674246
0.000659649
0.000643402
0.000625387
0.000605468
0.000583523
0.000559417
0.00053304
0.000504279
0.000473065
0.000439347
0.000403149
0.000364549
0.000323734
0.000280959
0.000236548
0.000190853
0.000144396
9.82063e-05
5.42898e-05
1.59759e-05
0.000525207
0.000522673
0.000518895
0.00051414
0.000508445
0.0005018
0.000494187
0.000485583
0.000475962
0.000465303
0.00045358
0.000440774
0.000426864
0.000411838
0.000395684
0.000378403
0.000359999
0.000340494
0.000319919
0.000298326
0.000275782
0.000252383
0.000228246
0.000203528
0.000178417
0.00015314
0.000127926
0.000102961
7.83624e-05
5.42885e-05
3.12382e-05
1.0223e-05
0.000144886
0.00014388
0.000142215
0.000140154
0.000137733
0.000134966
0.000131864
0.000128441
0.000124713
0.000120697
0.000116413
0.000111884
0.000107132
0.000102183
9.70643e-05
9.18036e-05
8.64293e-05
8.09705e-05
7.54551e-05
6.99107e-05
6.43618e-05
5.88306e-05
5.33339e-05
4.78848e-05
4.24906e-05
3.71561e-05
3.18804e-05
2.6644e-05
2.13822e-05
1.59751e-05
1.02226e-05
4.61685e-06
0.000360473
0.000360475
0.000360482
0.000360495
0.000360513
0.000360538
0.00036057
0.00036061
0.000360659
0.00036072
0.000360797
0.000360892
0.000361013
0.000361168
0.00036137
0.000361636
0.000361993
0.000362477
0.00036314
0.000364043
0.00036525
0.000366788
0.000368563
0.000370071
0.000370436
0.000367413
0.00035712
0.000333521
0.000288928
0.000216823
0.000119754
2.38909e-05
0.000360475
0.000360477
0.000360484
0.000360497
0.000360516
0.000360541
0.000360573
0.000360613
0.000360663
0.000360726
0.000360803
0.0003609
0.000361023
0.000361181
0.000361386
0.000361657
0.000362021
0.000362515
0.00036319
0.000364109
0.000365332
0.000366885
0.000368662
0.00037013
0.000370417
0.00036722
0.000356645
0.000332679
0.000287739
0.000215521
0.000118811
2.37111e-05
0.000360482
0.000360484
0.000360491
0.000360504
0.000360524
0.000360549
0.000360582
0.000360623
0.000360675
0.000360738
0.000360818
0.000360917
0.000361044
0.000361206
0.000361417
0.000361696
0.00036207
0.000362579
0.000363272
0.000364213
0.000365461
0.000367033
0.000368812
0.000370219
0.000370393
0.000366951
0.000355988
0.000331527
0.000286131
0.000213777
0.000117566
2.34912e-05
0.000360495
0.000360497
0.000360504
0.000360518
0.000360538
0.000360564
0.000360598
0.000360641
0.000360694
0.00036076
0.000360842
0.000360945
0.000361076
0.000361244
0.000361464
0.000361754
0.000362144
0.000362672
0.000363391
0.000364362
0.000365641
0.000367237
0.000369015
0.00037034
0.000370358
0.000366595
0.000355133
0.000330049
0.000284092
0.000211588
0.00011602
2.32244e-05
0.000360513
0.000360516
0.000360524
0.000360538
0.000360559
0.000360586
0.000360622
0.000360666
0.000360721
0.00036079
0.000360876
0.000360984
0.000361122
0.000361299
0.000361529
0.000361835
0.000362244
0.000362798
0.00036355
0.000364558
0.000365875
0.000367497
0.000369263
0.0003705
0.000370294
0.000366129
0.000354054
0.000328219
0.000281606
0.000208955
0.000114184
2.29111e-05
0.000360538
0.000360541
0.000360549
0.000360565
0.000360587
0.000360616
0.000360653
0.0003607
0.000360758
0.000360831
0.000360922
0.000361036
0.000361182
0.00036137
0.000361615
0.00036194
0.000362375
0.000362962
0.000363753
0.000364807
0.000366167
0.000367813
0.000369554
0.000370683
0.000370187
0.000365528
0.000352717
0.000326006
0.000278652
0.000205873
0.000112065
2.2553e-05
0.00036057
0.000360573
0.000360583
0.000360599
0.000360622
0.000360653
0.000360693
0.000360743
0.000360805
0.000360883
0.00036098
0.000361103
0.000361259
0.000361461
0.000361725
0.000362074
0.00036254
0.000363167
0.000364006
0.000365113
0.000366521
0.000368188
0.000369885
0.000370872
0.000370013
0.000364756
0.000351083
0.000323371
0.000275203
0.000202335
0.000109669
2.21517e-05
0.00036061
0.000360614
0.000360624
0.000360641
0.000360667
0.0003607
0.000360743
0.000360797
0.000360864
0.000360948
0.000361053
0.000361187
0.000361357
0.000361576
0.000361863
0.000362242
0.000362747
0.000363422
0.000364317
0.000365483
0.000366941
0.000368621
0.000370244
0.000371047
0.000369743
0.000363769
0.000349101
0.000320268
0.000271231
0.000198334
0.000107002
2.17089e-05
0.00036066
0.000360664
0.000360675
0.000360694
0.000360722
0.000360759
0.000360806
0.000360865
0.000360938
0.00036103
0.000361146
0.000361292
0.000361479
0.00036172
0.000362036
0.000362452
0.000363004
0.000363735
0.000364695
0.000365927
0.000367436
0.000369119
0.00037061
0.000371174
0.000369338
0.000362516
0.000346714
0.000316647
0.000266702
0.000193861
0.000104072
2.12266e-05
0.000360721
0.000360726
0.000360739
0.00036076
0.000360791
0.000360831
0.000360883
0.000360949
0.00036103
0.000361133
0.000361261
0.000361424
0.000361632
0.000361901
0.000362252
0.000362713
0.00036332
0.000364118
0.000365151
0.000366451
0.000368004
0.00036967
0.000370976
0.000371221
0.000368743
0.000360932
0.000343852
0.000312448
0.000261581
0.00018891
0.000100889
2.07065e-05
0.000360797
0.000360804
0.000360818
0.000360842
0.000360877
0.000360922
0.00036098
0.000361054
0.000361146
0.000361261
0.000361406
0.00036159
0.000361826
0.000362129
0.000362523
0.000363038
0.000363711
0.000364583
0.000365694
0.000367062
0.000368643
0.000370255
0.000371328
0.000371138
0.000367888
0.000358937
0.000340438
0.000307608
0.000255833
0.000183476
9.74623e-05
2.01502e-05
0.000360892
0.000360901
0.000360918
0.000360945
0.000360985
0.000361037
0.000361103
0.000361187
0.000361292
0.000361424
0.00036159
0.000361802
0.000362071
0.000362417
0.000362864
0.000363443
0.00036419
0.000365145
0.000366337
0.000367765
0.000369345
0.000370839
0.000371639
0.000370859
0.000366688
0.000356437
0.000336379
0.000302056
0.000249421
0.000177555
9.38044e-05
1.95596e-05
0.000361013
0.000361024
0.000361044
0.000361076
0.000361122
0.000361182
0.00036126
0.000361357
0.000361479
0.000361632
0.000361826
0.000362071
0.000362383
0.000362781
0.000363291
0.000363945
0.000364777
0.00036582
0.000367089
0.000368559
0.000370104
0.000371383
0.000371815
0.000370304
0.000365038
0.000353317
0.000331573
0.000295716
0.000242308
0.000171149
8.9929e-05
1.8936e-05
0.000361168
0.000361181
0.000361206
0.000361245
0.000361299
0.00036137
0.000361461
0.000361576
0.000361721
0.000361902
0.00036213
0.000362417
0.000362781
0.000363243
0.000363828
0.000364566
0.000365489
0.000366619
0.000367952
0.000369429
0.000370881
0.000371849
0.000371774
0.000369367
0.00036281
0.000349447
0.000325904
0.00028851
0.00023446
0.000164261
8.58521e-05
1.8281e-05
0.000361369
0.000361387
0.000361417
0.000361464
0.00036153
0.000361616
0.000361725
0.000361863
0.000362036
0.000362253
0.000362524
0.000362864
0.000363292
0.000363828
0.000364499
0.00036533
0.000366345
0.000367551
0.000368919
0.000370346
0.00037159
0.000372168
0.000371379
0.000367892
0.000359844
0.000344671
0.000319245
0.000280354
0.000225847
0.0001569
8.15909e-05
1.75955e-05
0.000361635
0.000361658
0.000361696
0.000361755
0.000361835
0.00036194
0.000362074
0.000362242
0.000362452
0.000362714
0.000363039
0.000363443
0.000363946
0.000364567
0.00036533
0.000366255
0.000367352
0.000368608
0.00036996
0.000371262
0.000372157
0.000372205
0.000370485