/*--------------------------------*- C++ -*----------------------------------*\
  =========                 |
  \\      /  F ield         | OpenFOAM: The Open Source CFD Toolbox
   \\    /   O peration     | Website:  https://openfoam.org
    \\  /    A nd           | Version:  11
     \\/     M anipulation  |
\*---------------------------------------------------------------------------*/
FoamFile
{
    format      ascii;
    class       volScalarField;
    location    "131";
    object      nut;
}
// * * * * * * * * * * * * * * * * * * * * * * * * * * * * * * * * * * * * * //

dimensions      [0 2 -1 0 0 0 0];

internalField   nonuniform List<scalar> 
65536
(
4.73541e-06
4.73541e-06
4.73541e-06
4.73542e-06
4.73543e-06
4.73544e-06
4.73545e-06
4.73546e-06
4.73548e-06
4.7355e-06
4.73552e-06
4.73555e-06
4.73558e-06
4.73563e-06
4.73569e-06
4.73576e-06
4.73587e-06
4.73601e-06
4.73622e-06
4.73653e-06
4.737e-06
4.73774e-06
4.7389e-06
4.74068e-06
4.74326e-06
4.74648e-06
4.7483e-06
4.74123e-06
4.69759e-06
4.52654e-06
3.9318e-06
1.86075e-06
4.73541e-06
4.73541e-06
4.73541e-06
4.73542e-06
4.73542e-06
4.73543e-06
4.73544e-06
4.73546e-06
4.73548e-06
4.73549e-06
4.73552e-06
4.73555e-06
4.73558e-06
4.73563e-06
4.73569e-06
4.73576e-06
4.73587e-06
4.73601e-06
4.73622e-06
4.73654e-06
4.73702e-06
4.73777e-06
4.73895e-06
4.74075e-06
4.74337e-06
4.74658e-06
4.74829e-06
4.74079e-06
4.69595e-06
4.52204e-06
3.92168e-06
1.84763e-06
4.73541e-06
4.73541e-06
4.73541e-06
4.73542e-06
4.73542e-06
4.73543e-06
4.73545e-06
4.73546e-06
4.73548e-06
4.7355e-06
4.73552e-06
4.73555e-06
4.73559e-06
4.73563e-06
4.73569e-06
4.73577e-06
4.73588e-06
4.73603e-06
4.73625e-06
4.73657e-06
4.73707e-06
4.73785e-06
4.73906e-06
4.74091e-06
4.74356e-06
4.74677e-06
4.74832e-06
4.74021e-06
4.69369e-06
4.51593e-06
3.90849e-06
1.83078e-06
4.73542e-06
4.73542e-06
4.73542e-06
4.73542e-06
4.73543e-06
4.73544e-06
4.73545e-06
4.73547e-06
4.73548e-06
4.7355e-06
4.73553e-06
4.73556e-06
4.7356e-06
4.73565e-06
4.73571e-06
4.73579e-06
4.7359e-06
4.73606e-06
4.73629e-06
4.73663e-06
4.73715e-06
4.73796e-06
4.73922e-06
4.74113e-06
4.74384e-06
4.74702e-06
4.74837e-06
4.73946e-06
4.69077e-06
4.5081e-06
3.89183e-06
1.80994e-06
4.73543e-06
4.73542e-06
4.73543e-06
4.73543e-06
4.73544e-06
4.73545e-06
4.73546e-06
4.73548e-06
4.73549e-06
4.73551e-06
4.73554e-06
4.73557e-06
4.73561e-06
4.73566e-06
4.73573e-06
4.73582e-06
4.73593e-06
4.7361e-06
4.73634e-06
4.73671e-06
4.73726e-06
4.73812e-06
4.73944e-06
4.74143e-06
4.7442e-06
4.74734e-06
4.74842e-06
4.73849e-06
4.6871e-06
4.49841e-06
3.87155e-06
1.78509e-06
4.73544e-06
4.73543e-06
4.73544e-06
4.73545e-06
4.73546e-06
4.73547e-06
4.73548e-06
4.73549e-06
4.73551e-06
4.73553e-06
4.73556e-06
4.73559e-06
4.73563e-06
4.73568e-06
4.73575e-06
4.73585e-06
4.73598e-06
4.73615e-06
4.73642e-06
4.73681e-06
4.7374e-06
4.73832e-06
4.73972e-06
4.74179e-06
4.74465e-06
4.7477e-06
4.74845e-06
4.73724e-06
4.68257e-06
4.48668e-06
3.84746e-06
1.75623e-06
4.73545e-06
4.73545e-06
4.73546e-06
4.73546e-06
4.73547e-06
4.73548e-06
4.7355e-06
4.73551e-06
4.73553e-06
4.73555e-06
4.73558e-06
4.73561e-06
4.73565e-06
4.73571e-06
4.73579e-06
4.73589e-06
4.73603e-06
4.73622e-06
4.73651e-06
4.73694e-06
4.73758e-06
4.73857e-06
4.74006e-06
4.74224e-06
4.74519e-06
4.74812e-06
4.74842e-06
4.73564e-06
4.67701e-06
4.4727e-06
3.81932e-06
1.72331e-06
4.73547e-06
4.73547e-06
4.73547e-06
4.73548e-06
4.73549e-06
4.7355e-06
4.73552e-06
4.73553e-06
4.73555e-06
4.73557e-06
4.7356e-06
4.73564e-06
4.73568e-06
4.73575e-06
4.73583e-06
4.73594e-06
4.73609e-06
4.73631e-06
4.73663e-06
4.7371e-06
4.73781e-06
4.73888e-06
4.74048e-06
4.74278e-06
4.74582e-06
4.74858e-06
4.74829e-06
4.73358e-06
4.67026e-06
4.45617e-06
3.78683e-06
1.68632e-06
4.73549e-06
4.73548e-06
4.73549e-06
4.73549e-06
4.7355e-06
4.73552e-06
4.73553e-06
4.73556e-06
4.73558e-06
4.7356e-06
4.73564e-06
4.73568e-06
4.73572e-06
4.73579e-06
4.73588e-06
4.736e-06
4.73618e-06
4.73642e-06
4.73678e-06
4.7373e-06
4.73809e-06
4.73926e-06
4.74098e-06
4.74342e-06
4.74652e-06
4.7491e-06
4.74799e-06
4.73094e-06
4.66207e-06
4.43678e-06
3.74964e-06
1.64522e-06
4.7355e-06
4.7355e-06
4.7355e-06
4.73551e-06
4.73552e-06
4.73553e-06
4.73555e-06
4.73558e-06
4.73561e-06
4.73564e-06
4.73567e-06
4.73572e-06
4.73577e-06
4.73585e-06
4.73595e-06
4.73608e-06
4.73628e-06
4.73656e-06
4.73696e-06
4.73756e-06
4.73844e-06
4.73973e-06
4.74159e-06
4.74415e-06
4.74728e-06
4.74964e-06
4.74746e-06
4.72755e-06
4.65217e-06
4.4141e-06
3.70735e-06
1.59997e-06
4.73552e-06
4.73552e-06
4.73553e-06
4.73553e-06
4.73554e-06
4.73556e-06
4.73558e-06
4.7356e-06
4.73564e-06
4.73567e-06
4.73572e-06
4.73577e-06
4.73584e-06
4.73592e-06
4.73603e-06
4.73619e-06
4.73642e-06
4.73674e-06
4.7372e-06
4.73788e-06
4.73887e-06
4.7403e-06
4.74232e-06
4.74501e-06
4.74813e-06
4.75012e-06
4.74658e-06
4.72321e-06
4.64021e-06
4.38768e-06
3.65951e-06
1.55057e-06
4.73555e-06
4.73555e-06
4.73556e-06
4.73556e-06
4.73558e-06
4.73559e-06
4.73561e-06
4.73564e-06
4.73567e-06
4.73572e-06
4.73577e-06
4.73584e-06
4.73592e-06
4.73602e-06
4.73615e-06
4.73634e-06
4.7366e-06
4.73697e-06
4.7375e-06
4.73828e-06
4.7394e-06
4.74099e-06
4.74318e-06
4.74599e-06
4.74903e-06
4.7505e-06
4.74521e-06
4.71763e-06
4.62577e-06
4.35695e-06
3.60561e-06
1.49701e-06
4.73559e-06
4.73559e-06
4.73559e-06
4.7356e-06
4.73562e-06
4.73563e-06
4.73566e-06
4.73569e-06
4.73572e-06
4.73577e-06
4.73584e-06
4.73592e-06
4.73602e-06
4.73614e-06
4.73631e-06
4.73653e-06
4.73684e-06
4.73727e-06
4.73789e-06
4.73879e-06
4.74006e-06
4.74182e-06
4.74419e-06
4.74712e-06
4.74993e-06
4.75065e-06
4.74314e-06
4.71047e-06
4.60829e-06
4.32125e-06
3.54506e-06
1.43931e-06
4.73563e-06
4.73563e-06
4.73564e-06
4.73565e-06
4.73567e-06
4.73569e-06
4.73572e-06
4.73575e-06
4.73579e-06
4.73585e-06
4.73592e-06
4.73602e-06
4.73614e-06
4.7363e-06
4.73651e-06
4.73679e-06
4.73715e-06
4.73767e-06
4.7384e-06
4.73943e-06
4.74087e-06
4.74283e-06
4.74537e-06
4.74836e-06
4.75078e-06
4.75047e-06
4.74012e-06
4.70129e-06
4.58715e-06
4.27977e-06
3.47722e-06
1.37749e-06
4.73569e-06
4.73569e-06
4.7357e-06
4.73571e-06
4.73573e-06
4.73576e-06
4.73579e-06
4.73583e-06
4.73589e-06
4.73595e-06
4.73604e-06
4.73615e-06
4.7363e-06
4.7365e-06
4.73676e-06
4.73711e-06
4.73757e-06
4.73819e-06
4.73906e-06
4.74025e-06
4.74188e-06
4.74403e-06
4.74671e-06
4.74965e-06
4.75159e-06
4.74972e-06
4.73575e-06
4.68948e-06
4.56151e-06
4.23161e-06
3.40135e-06
1.31163e-06
4.73577e-06
4.73577e-06
4.73578e-06
4.7358e-06
4.73582e-06
4.73585e-06
4.73589e-06
4.73595e-06
4.73601e-06
4.73609e-06
4.7362e-06
4.73634e-06
4.73652e-06
4.73676e-06
4.73709e-06
4.73753e-06
4.7381e-06
4.73887e-06
4.7399e-06
4.74128e-06
4.74311e-06
4.74545e-06
4.74822e-06
4.75093e-06
4.75209e-06
4.7481e-06
4.72954e-06
4.67429e-06
4.5304e-06
4.17565e-06
3.31665e-06
1.24183e-06
4.73587e-06
4.73587e-06
4.73588e-06
4.73591e-06
4.73594e-06
4.73598e-06
4.73603e-06
4.7361e-06
4.73618e-06
4.73629e-06
4.73642e-06
4.7366e-06
4.73682e-06
4.73713e-06
4.73754e-06
4.73808e-06
4.7388e-06
4.73974e-06
4.74096e-06
4.74256e-06
4.7446e-06
4.7471e-06
4.74988e-06
4.75208e-06
4.75206e-06
4.74517e-06
4.72078e-06
4.65473e-06
4.49254e-06
4.11063e-06
3.22224e-06
1.16823e-06
4.73601e-06
4.73602e-06
4.73603e-06
4.73606e-06
4.7361e-06
4.73616e-06
4.73623e-06
4.73631e-06
4.73643e-06
4.73657e-06
4.73674e-06
4.73697e-06
4.73727e-06
4.73765e-06
4.73816e-06
4.73884e-06
4.73972e-06
4.74086e-06
4.7423e-06
4.74412e-06
4.74636e-06
4.74893e-06
4.75149e-06
4.75294e-06
4.75107e-06
4.74028e-06
4.70851e-06
4.62951e-06
4.44643e-06
4.03496e-06
3.11714e-06
1.09105e-06
4.73621e-06
4.73623e-06
4.73625e-06
4.73629e-06
4.73634e-06
4.73642e-06
4.73651e-06
4.73663e-06
4.73678e-06
4.73697e-06
4.73721e-06
4.73751e-06
4.73789e-06
4.73839e-06
4.73903e-06
4.73987e-06
4.74093e-06
4.74229e-06
4.74396e-06
4.74599e-06
4.74833e-06
4.75085e-06
4.75285e-06
4.75309e-06
4.74849e-06
4.73248e-06
4.69141e-06
4.59694e-06
4.39014e-06
3.94694e-06
3.00028e-06
1.01054e-06
4.73652e-06
4.73654e-06
4.73657e-06
4.73663e-06
4.7367e-06
4.73681e-06
4.73693e-06
4.7371e-06
4.7373e-06
4.73756e-06
4.73788e-06
4.73828e-06
4.73879e-06
4.73943e-06
4.74024e-06
4.74126e-06
4.74254e-06
4.7441e-06
4.74599e-06
4.74814e-06
4.75047e-06
4.75258e-06
4.7536e-06
4.7518e-06
4.74331e-06
4.72038e-06
4.66769e-06
4.55486e-06
4.32133e-06
3.84435e-06
2.87056e-06
9.27069e-07
4.73699e-06
4.73702e-06
4.73707e-06
4.73715e-06
4.73726e-06
4.7374e-06
4.73758e-06
4.7378e-06
4.73808e-06
4.73843e-06
4.73886e-06
4.7394e-06
4.74006e-06
4.74087e-06
4.74187e-06
4.7431e-06
4.74459e-06
4.74635e-06
4.74835e-06
4.75049e-06
4.75246e-06
4.75364e-06
4.75299e-06
4.74804e-06
4.73403e-06
4.70199e-06
4.63488e-06
4.50044e-06
4.23708e-06
3.72486e-06
2.72671e-06
8.41064e-07
4.73773e-06
4.73777e-06
4.73784e-06
4.73796e-06
4.73811e-06
4.73831e-06
4.73856e-06
4.73887e-06
4.73925e-06
4.73972e-06
4.74029e-06
4.74098e-06
4.74182e-06
4.74282e-06
4.74402e-06
4.74544e-06
4.74709e-06
4.74892e-06
4.75087e-06
4.75262e-06
4.75367e-06
4.75332e-06
4.74983e-06
4.74001e-06
4.71841e-06
4.67444e-06
4.58961e-06
4.43001e-06
4.13381e-06
3.58545e-06
2.56754e-06
7.5308e-07
4.73888e-06
4.73894e-06
4.73905e-06
4.73921e-06
4.73943e-06
4.7397e-06
4.74004e-06
4.74046e-06
4.74097e-06
4.74158e-06
4.7423e-06
4.74317e-06
4.74418e-06
4.74536e-06
4.7467e-06
4.7482e-06
4.74985e-06
4.75147e-06
4.75286e-06
4.75362e-06
4.75308e-06
4.74989e-06
4.74175e-06
4.72506e-06
4.69284e-06
4.63373e-06
4.52733e-06
4.33883e-06
4.0071e-06
3.42294e-06
2.39172e-06
6.63783e-07
4.74065e-06
4.74074e-06
4.74089e-06
4.74111e-06
4.74141e-06
4.74178e-06
4.74222e-06
4.74276e-06
4.74339e-06
4.74413e-06
4.74499e-06
4.74597e-06
4.7471e-06
4.74835e-06
4.74963e-06
4.7509e-06
4.75204e-06
4.75289e-06
4.75304e-06
4.7518e-06
4.74808e-06
4.74012e-06
4.72511e-06
4.69833e-06
4.65224e-06
4.57373e-06
4.44179e-06
4.22074e-06
3.85154e-06
3.23339e-06
2.19809e-06
5.73993e-07
4.74324e-06
4.74335e-06
4.74354e-06
4.74382e-06
4.74418e-06
4.74463e-06
4.74517e-06
4.7458e-06
4.74649e-06
4.74726e-06
4.74811e-06
4.74901e-06
4.74991e-06
4.75076e-06
4.75156e-06
4.75205e-06
4.752e-06
4.75098e-06
4.74837e-06
4.7432e-06
4.73398e-06
4.71842e-06
4.69299e-06
4.65232e-06
4.58767e-06
4.48563e-06
4.32385e-06
4.06755e-06
3.66047e-06
3.01272e-06
1.98557e-06
4.84693e-07
4.74645e-06
4.74656e-06
4.74675e-06
4.747e-06
4.74731e-06
4.74768e-06
4.74809e-06
4.74855e-06
4.74907e-06
4.74961e-06
4.7501e-06
4.75047e-06
4.75063e-06
4.75045e-06
4.74968e-06
4.74804e-06
4.74508e-06
4.74014e-06
4.73229e-06
4.72017e-06
4.70181e-06
4.67438e-06
4.63376e-06
4.57387e-06
4.48569e-06
4.35508e-06
4.16046e-06
3.8677e-06
3.42544e-06
2.75611e-06
1.75371e-06
3.97097e-07
4.74827e-06
4.74827e-06
4.7483e-06
4.74835e-06
4.7484e-06
4.74842e-06
4.74839e-06
4.74826e-06
4.74796e-06
4.74743e-06
4.74655e-06
4.74518e-06
4.74312e-06
4.74009e-06
4.73571e-06
4.72946e-06
4.72065e-06
4.70833e-06
4.69117e-06
4.6674e-06
4.63458e-06
4.58938e-06
4.52724e-06
4.4418e-06
4.324e-06
4.16053e-06
3.9309e-06
3.60427e-06
3.13458e-06
2.45829e-06
1.50267e-06
3.12711e-07
4.7412e-06
4.74077e-06
4.74019e-06
4.73943e-06
4.73846e-06
4.73721e-06
4.73561e-06
4.73355e-06
4.73091e-06
4.72752e-06
4.72318e-06
4.7176e-06
4.71045e-06
4.70125e-06
4.68942e-06
4.6742e-06
4.65458e-06
4.6293e-06
4.59667e-06
4.55454e-06
4.50009e-06
4.4297e-06
4.33862e-06
4.22069e-06
4.06759e-06
3.86782e-06
3.60432e-06
3.25117e-06
2.7702e-06
2.11148e-06
1.23357e-06
2.33433e-07
4.69756e-06
4.69592e-06
4.69367e-06
4.69075e-06
4.68707e-06
4.68253e-06
4.67698e-06
4.67023e-06
4.66204e-06
4.65215e-06
4.64019e-06
4.62574e-06
4.60827e-06
4.58711e-06
4.56145e-06
4.5303e-06
4.49239e-06
4.44622e-06
4.38987e-06
4.32101e-06
4.23673e-06
4.13348e-06
4.00683e-06
3.85139e-06
3.66045e-06
3.42548e-06
3.13465e-06
2.77023e-06
2.30483e-06
1.70307e-06
9.4704e-07
1.61395e-07
4.52651e-06
4.52202e-06
4.51591e-06
4.50807e-06
4.49838e-06
4.48666e-06
4.47267e-06
4.45615e-06
4.43676e-06
4.41408e-06
4.38767e-06
4.35693e-06
4.32123e-06
4.27973e-06
4.23156e-06
4.17556e-06
4.1105e-06
4.03477e-06
3.9467e-06
3.84408e-06
3.72456e-06
3.58516e-06
3.4227e-06
3.23323e-06
3.01264e-06
2.75612e-06
2.45833e-06
2.11153e-06
1.70309e-06
1.2144e-06
6.419e-07
9.83799e-08
3.93178e-06
3.92167e-06
3.90847e-06
3.89181e-06
3.87153e-06
3.84745e-06
3.81931e-06
3.78682e-06
3.74963e-06
3.70735e-06
3.65951e-06
3.60561e-06
3.54506e-06
3.4772e-06
3.40132e-06
3.3166e-06
3.22216e-06
3.11702e-06
3.00014e-06
2.87038e-06
2.72653e-06
2.56737e-06
2.39157e-06
2.19799e-06
1.98553e-06
1.75371e-06
1.50271e-06
1.23359e-06
9.47038e-07
6.41894e-07
3.22918e-07
4.6471e-08
1.86074e-06
1.84763e-06
1.83078e-06
1.80993e-06
1.78509e-06
1.75622e-06
1.72331e-06
1.68632e-06
1.64521e-06
1.59997e-06
1.55057e-06
1.49701e-06
1.4393e-06
1.37749e-06
1.31162e-06
1.24181e-06
1.16821e-06
1.09102e-06
1.01051e-06
9.2703e-07
8.41025e-07
7.53044e-07
6.63756e-07
5.73978e-07
4.84691e-07
3.97104e-07
3.12721e-07
2.33437e-07
1.61394e-07
9.83775e-08
4.647e-08
7.60246e-09
2.26886e-06
2.26886e-06
2.26888e-06
2.2689e-06
2.26893e-06
2.26898e-06
2.26904e-06
2.26911e-06
2.2692e-06
2.2693e-06
2.26943e-06
2.2696e-06
2.26981e-06
2.27007e-06
2.27041e-06
2.27087e-06
2.27148e-06
2.27234e-06
2.27355e-06
2.27529e-06
2.27781e-06
2.28141e-06
2.28633e-06
2.29242e-06
2.29825e-06
2.29898e-06
2.283e-06
2.2241e-06
2.07194e-06
1.74152e-06
1.11888e-06
1.88301e-07
2.26886e-06
2.26886e-06
2.26887e-06
2.2689e-06
2.26893e-06
2.26898e-06
2.26904e-06
2.26911e-06
2.2692e-06
2.26931e-06
2.26944e-06
2.26961e-06
2.26982e-06
2.27009e-06
2.27044e-06
2.2709e-06
2.27153e-06
2.2724e-06
2.27364e-06
2.27542e-06
2.27798e-06
2.28164e-06
2.28661e-06
2.29273e-06
2.29844e-06
2.29885e-06
2.28207e-06
2.22169e-06
2.06735e-06
1.7347e-06
1.1117e-06
1.86289e-07
2.26887e-06
2.26887e-06
2.26889e-06
2.26891e-06
2.26894e-06
2.26899e-06
2.26905e-06
2.26913e-06
2.26922e-06
2.26933e-06
2.26947e-06
2.26964e-06
2.26985e-06
2.27013e-06
2.27049e-06
2.27097e-06
2.27161e-06
2.27251e-06
2.27379e-06
2.27562e-06
2.27826e-06
2.282e-06
2.28707e-06
2.29322e-06
2.29874e-06
2.29873e-06
2.28083e-06
2.21842e-06
2.06114e-06
1.72543e-06
1.10179e-06
1.83341e-07
2.2689e-06
2.2689e-06
2.26891e-06
2.26893e-06
2.26897e-06
2.26902e-06
2.26908e-06
2.26916e-06
2.26925e-06
2.26937e-06
2.26951e-06
2.26969e-06
2.26991e-06
2.2702e-06
2.27057e-06
2.27107e-06
2.27174e-06
2.27268e-06
2.27402e-06
2.27593e-06
2.27867e-06
2.28253e-06
2.28771e-06
2.29392e-06
2.29914e-06
2.29857e-06
2.27921e-06
2.21422e-06
2.05322e-06
1.71373e-06
1.0894e-06
1.79735e-07
2.26893e-06
2.26893e-06
2.26895e-06
2.26898e-06
2.26902e-06
2.26907e-06
2.26913e-06
2.26921e-06
2.2693e-06
2.26942e-06
2.26957e-06
2.26975e-06
2.26999e-06
2.27029e-06
2.27069e-06
2.27121e-06
2.27192e-06
2.27292e-06
2.27432e-06
2.27634e-06
2.27921e-06
2.28322e-06
2.28853e-06
2.2948e-06
2.29963e-06
2.29833e-06
2.27714e-06
2.20896e-06
2.04349e-06
1.69954e-06
1.07459e-06
1.75524e-07
2.26898e-06
2.26898e-06
2.269e-06
2.26903e-06
2.26907e-06
2.26913e-06
2.26919e-06
2.26927e-06
2.26937e-06
2.26949e-06
2.26965e-06
2.26985e-06
2.2701e-06
2.27042e-06
2.27084e-06
2.2714e-06
2.27216e-06
2.27322e-06
2.27473e-06
2.27686e-06
2.27989e-06
2.28408e-06
2.28956e-06
2.29586e-06
2.30018e-06
2.29793e-06
2.2745e-06
2.20249e-06
2.03177e-06
1.68275e-06
1.05735e-06
1.70739e-07
2.26904e-06
2.26905e-06
2.26907e-06
2.2691e-06
2.26914e-06
2.2692e-06
2.26927e-06
2.26936e-06
2.26946e-06
2.26959e-06
2.26976e-06
2.26996e-06
2.27023e-06
2.27058e-06
2.27103e-06
2.27164e-06
2.27246e-06
2.27361e-06
2.27523e-06
2.27753e-06
2.28074e-06
2.28514e-06
2.29078e-06
2.2971e-06
2.30075e-06
2.29731e-06
2.27116e-06
2.19464e-06
2.01789e-06
1.66324e-06
1.03766e-06
1.65415e-07
2.26912e-06
2.26913e-06
2.26914e-06
2.26918e-06
2.26922e-06
2.26928e-06
2.26936e-06
2.26946e-06
2.26957e-06
2.26972e-06
2.26989e-06
2.27012e-06
2.27041e-06
2.27078e-06
2.27127e-06
2.27194e-06
2.27285e-06
2.2741e-06
2.27587e-06
2.27835e-06
2.28178e-06
2.28641e-06
2.29221e-06
2.29845e-06
2.30138e-06
2.29632e-06
2.26692e-06
2.18517e-06
2.00161e-06
1.64083e-06
1.0155e-06
1.59588e-07
2.26921e-06
2.26922e-06
2.26923e-06
2.26927e-06
2.26932e-06
2.26938e-06
2.26947e-06
2.26958e-06
2.26971e-06
2.26987e-06
2.27006e-06
2.27031e-06
2.27063e-06
2.27104e-06
2.27158e-06
2.27232e-06
2.27332e-06
2.27472e-06
2.27665e-06
2.27935e-06
2.28304e-06
2.28791e-06
2.29383e-06
2.29985e-06
2.30204e-06
2.29482e-06
2.26158e-06
2.17382e-06
1.98266e-06
1.61534e-06
9.90837e-07
1.533e-07
2.26931e-06
2.26932e-06
2.26934e-06
2.26938e-06
2.26943e-06
2.2695e-06
2.2696e-06
2.26972e-06
2.26987e-06
2.27005e-06
2.27027e-06
2.27055e-06
2.2709e-06
2.27136e-06
2.27197e-06
2.2728e-06
2.27392e-06
2.27548e-06
2.27763e-06
2.28058e-06
2.28455e-06
2.28966e-06
2.29565e-06
2.30128e-06
2.30256e-06
2.29265e-06
2.25487e-06
2.16027e-06
1.96074e-06
1.58659e-06
9.63652e-07
1.46598e-07
2.26944e-06
2.26946e-06
2.26948e-06
2.26952e-06
2.26958e-06
2.26966e-06
2.26976e-06
2.2699e-06
2.27006e-06
2.27027e-06
2.27052e-06
2.27084e-06
2.27125e-06
2.27178e-06
2.27247e-06
2.27341e-06
2.27468e-06
2.27643e-06
2.27883e-06
2.28207e-06
2.28635e-06
2.29171e-06
2.29768e-06
2.30266e-06
2.30275e-06
2.28955e-06
2.24645e-06
2.14413e-06
1.93551e-06
1.55436e-06
9.3393e-07
1.39532e-07
2.2696e-06
2.26962e-06
2.26965e-06
2.26969e-06
2.26976e-06
2.26985e-06
2.26997e-06
2.27012e-06
2.27031e-06
2.27054e-06
2.27084e-06
2.27122e-06
2.27169e-06
2.27231e-06
2.27311e-06
2.27419e-06
2.27564e-06
2.27763e-06
2.28031e-06
2.28388e-06
2.28848e-06
2.29405e-06
2.29996e-06
2.30388e-06
2.30224e-06
2.28523e-06
2.23593e-06
2.12497e-06
1.90658e-06
1.51842e-06
9.01677e-07
1.32156e-07
2.26981e-06
2.26983e-06
2.26987e-06
2.26992e-06
2.27e-06
2.27011e-06
2.27024e-06
2.27041e-06
2.27062e-06
2.27089e-06
2.27124e-06
2.27169e-06
2.27226e-06
2.27298e-06
2.27394e-06
2.27519e-06
2.27687e-06
2.27913e-06
2.28213e-06
2.28605e-06
2.29096e-06
2.29667e-06
2.30234e-06
2.30485e-06
2.30087e-06
2.27926e-06
2.22281e-06
2.10227e-06
1.87351e-06
1.47855e-06
8.66898e-07
1.24524e-07
2.27007e-06
2.27011e-06
2.27014e-06
2.27021e-06
2.2703e-06
2.27043e-06
2.27059e-06
2.27079e-06
2.27104e-06
2.27136e-06
2.27177e-06
2.2723e-06
2.27298e-06
2.27386e-06
2.27499e-06
2.27648e-06
2.27843e-06
2.28101e-06
2.28437e-06
2.28863e-06
2.2938e-06
2.29947e-06
2.30449e-06
2.30559e-06
2.29822e-06
2.27112e-06
2.20647e-06
2.07543e-06
1.83584e-06
1.43449e-06
8.29636e-07
1.16697e-07
2.27041e-06
2.27046e-06
2.2705e-06
2.27058e-06
2.2707e-06
2.27085e-06
2.27104e-06
2.27128e-06
2.27159e-06
2.27198e-06
2.27247e-06
2.2731e-06
2.27392e-06
2.27498e-06
2.27635e-06
2.27811e-06
2.2804e-06
2.28334e-06
2.28708e-06
2.29168e-06
2.29699e-06
2.30241e-06
2.30621e-06
2.30542e-06
2.29379e-06
2.26014e-06
2.1862e-06
2.04376e-06
1.79302e-06
1.38604e-06
7.89927e-07
1.08731e-07
2.27086e-06
2.27092e-06
2.27098e-06
2.27108e-06
2.27122e-06
2.27141e-06
2.27165e-06
2.27195e-06
2.27233e-06
2.2728e-06
2.27341e-06
2.27418e-06
2.27518e-06
2.27645e-06
2.2781e-06
2.28021e-06
2.28287e-06
2.28622e-06
2.29032e-06
2.29517e-06
2.30046e-06
2.30535e-06
2.30733e-06
2.30377e-06
2.28693e-06
2.24551e-06
2.16112e-06
2.00646e-06
1.74451e-06
1.33292e-06
7.47868e-07
1.00688e-07
2.27148e-06
2.27155e-06
2.27163e-06
2.27176e-06
2.27194e-06
2.27217e-06
2.27248e-06
2.27286e-06
2.27333e-06
2.27393e-06
2.27469e-06
2.27564e-06
2.27686e-06
2.27841e-06
2.28037e-06
2.28285e-06
2.28593e-06
2.28968e-06
2.2941e-06
2.29903e-06
2.30395e-06
2.30765e-06
2.30751e-06
2.29986e-06
2.27668e-06
2.2262e-06
2.13019e-06
1.96263e-06
1.68968e-06
1.27497e-06
7.03544e-07
9.26246e-08
2.27233e-06
2.27242e-06
2.27253e-06
2.27269e-06
2.27293e-06
2.27323e-06
2.27362e-06
2.27411e-06
2.27473e-06
2.27549e-06
2.27644e-06
2.27763e-06
2.27912e-06
2.28099e-06
2.28332e-06
2.28619e-06
2.28966e-06
2.29374e-06
2.29832e-06
2.30306e-06
2.30722e-06
2.30882e-06
2.3058e-06
2.29273e-06
2.26183e-06
2.20091e-06
2.09218e-06
1.91128e-06
1.62792e-06
1.21195e-06
6.57123e-07
8.45994e-08
2.27354e-06
2.27365e-06
2.2738e-06
2.27402e-06
2.27433e-06
2.27473e-06
2.27524e-06
2.27587e-06
2.27666e-06
2.27763e-06
2.27883e-06
2.28031e-06
2.28213e-06
2.28435e-06
2.28706e-06
2.29029e-06
2.29407e-06
2.2983e-06
2.30272e-06
2.30677e-06
2.3093e-06
2.30822e-06
2.30075e-06
2.281e-06
2.24083e-06
2.16806e-06
2.04567e-06
1.85129e-06
1.55858e-06
1.14378e-06
6.08762e-07
7.66649e-08
2.27528e-06
2.27543e-06
2.27563e-06
2.27593e-06
2.27634e-06
2.27687e-06
2.27753e-06
2.27835e-06
2.27935e-06
2.28058e-06
2.28207e-06
2.28388e-06
2.28605e-06
2.28863e-06
2.29166e-06
2.29514e-06
2.299e-06
2.30303e-06
2.30676e-06
2.30939e-06
2.30909e-06
2.3044e-06
2.2908e-06
2.26271e-06
2.2117e-06
2.12577e-06
1.98902e-06
1.78149e-06
1.48105e-06
1.07034e-06
5.5872e-07
6.88736e-08
2.27779e-06
2.27799e-06
2.27827e-06
2.27867e-06
2.2792e-06
2.27989e-06
2.28074e-06
2.28178e-06
2.28304e-06
2.28455e-06
2.28635e-06
2.28847e-06
2.29095e-06
2.29378e-06
2.29697e-06
2.30043e-06
2.30392e-06
2.30719e-06
2.30929e-06
2.30909e-06
2.30544e-06
2.29492e-06
2.27355e-06
2.2354e-06
2.17192e-06
2.07178e-06
1.92042e-06
1.70064e-06
1.39479e-06
9.91744e-07
5.07251e-07
6.127e-08
2.28138e-06
2.28164e-06
2.28201e-06
2.28252e-06
2.28321e-06
2.28407e-06
2.28513e-06
2.2864e-06
2.28789e-06
2.28965e-06
2.29169e-06
2.29403e-06
2.29665e-06
2.29945e-06
2.30239e-06
2.30533e-06
2.30762e-06
2.30879e-06
2.3082e-06
2.3044e-06
2.29491e-06
2.27684e-06
2.24584e-06
2.19572e-06
2.11847e-06
2.0034e-06
1.83785e-06
1.60754e-06
1.29936e-06
9.08077e-07
4.54723e-07
5.38967e-08
2.28629e-06
2.28661e-06
2.28707e-06
2.2877e-06
2.28852e-06
2.28955e-06
2.29077e-06
2.29219e-06
2.29381e-06
2.29563e-06
2.29766e-06
2.29993e-06
2.30231e-06
2.30446e-06
2.30618e-06
2.30729e-06
2.30747e-06
2.30576e-06
2.30072e-06
2.29078e-06
2.27358e-06
2.24587e-06
2.20308e-06
2.13955e-06
2.04744e-06
1.91764e-06
1.73917e-06
1.50102e-06
1.19451e-06
8.19762e-07
4.01515e-07
4.67874e-08
2.29238e-06
2.29272e-06
2.29322e-06
2.2939e-06
2.29478e-06
2.29584e-06
2.29708e-06
2.29843e-06
2.29982e-06
2.30125e-06
2.30263e-06
2.30385e-06
2.30481e-06
2.30555e-06
2.30538e-06
2.30372e-06
2.2998e-06
2.29266e-06
2.28093e-06
2.26267e-06
2.23539e-06
2.19576e-06
2.13956e-06
2.06131e-06
1.95445e-06
1.81086e-06
1.62212e-06
1.38008e-06
1.0803e-06
7.27303e-07
3.4814e-07
3.99743e-08
2.29821e-06
2.29844e-06
2.29873e-06
2.29912e-06
2.29961e-06
2.30015e-06
2.30072e-06
2.30135e-06
2.30201e-06
2.30253e-06
2.30272e-06
2.3022e-06
2.30083e-06
2.29817e-06
2.29373e-06
2.28686e-06
2.2766e-06
2.26173e-06
2.24072e-06
2.21159e-06
2.17186e-06
2.11844e-06
2.0475e-06
1.95448e-06
1.83372e-06
1.67917e-06
1.4842e-06
1.2439e-06
9.57047e-07
6.31601e-07
2.95162e-07
3.34861e-08
2.29893e-06
2.29884e-06
2.29871e-06
2.29855e-06
2.2983e-06
2.2979e-06
2.29728e-06
2.29629e-06
2.29478e-06
2.29261e-06
2.28951e-06
2.28518e-06
2.27921e-06
2.27106e-06
2.26007e-06
2.24543e-06
2.2261e-06
2.20078e-06
2.16792e-06
2.12563e-06
2.07165e-06
2.00335e-06
1.91762e-06
1.81091e-06
1.67918e-06
1.51795e-06
1.32309e-06
1.09176e-06
8.2541e-07
5.33691e-07
2.43291e-07
2.73592e-08
2.28295e-06
2.28205e-06
2.28081e-06
2.27919e-06
2.27711e-06
2.27447e-06
2.27111e-06
2.26688e-06
2.26153e-06
2.25481e-06
2.2464e-06
2.23587e-06
2.22274e-06
2.2064e-06
2.18612e-06
2.16102e-06
2.13007e-06
2.09204e-06
2.04551e-06
1.98886e-06
1.92027e-06
1.83774e-06
1.73912e-06
1.6221e-06
1.48425e-06
1.3231e-06
1.13639e-06
9.23233e-07
6.86107e-07
4.34798e-07
1.9326e-07
2.16386e-08
2.22405e-06
2.22167e-06
2.2184e-06
2.21419e-06
2.20892e-06
2.20245e-06
2.1946e-06
2.18513e-06
2.17377e-06
2.16021e-06
2.14407e-06
2.12491e-06
2.10221e-06
2.07536e-06
2.04367e-06
2.00636e-06
1.96251e-06
1.91114e-06
1.85114e-06
1.78134e-06
1.7005e-06
1.60742e-06
1.50094e-06
1.38006e-06
1.2439e-06
1.09178e-06
9.23233e-07
7.38489e-07
5.40058e-07
3.35899e-07
1.4572e-07
1.63695e-08
2.07189e-06
2.06733e-06
2.06112e-06
2.05319e-06
2.04345e-06
2.03174e-06
2.01785e-06
2.00156e-06
1.98261e-06
1.96069e-06
1.93546e-06
1.90652e-06
1.87345e-06
1.83577e-06
1.79295e-06
1.74442e-06
1.68957e-06
1.6278e-06
1.55845e-06
1.48093e-06
1.39467e-06
1.29926e-06
1.19445e-06
1.08027e-06
9.57045e-07
8.25408e-07
6.86109e-07
5.40054e-07
3.88961e-07
2.37968e-07
1.01061e-07
1.15596e-08
1.74148e-06
1.73468e-06
1.72542e-06
1.71371e-06
1.69952e-06
1.68273e-06
1.66321e-06
1.6408e-06
1.61531e-06
1.58656e-06
1.55433e-06
1.51838e-06
1.47851e-06
1.43445e-06
1.38599e-06
1.33286e-06
1.2749e-06
1.21186e-06
1.14369e-06
1.07026e-06
9.91666e-07
9.08016e-07
8.19722e-07
7.27285e-07
6.31599e-07
5.33697e-07
4.34798e-07
3.35898e-07
2.37966e-07
1.43325e-07
5.98743e-08
7.1794e-09
1.11886e-06
1.1117e-06
1.10179e-06
1.0894e-06
1.07459e-06
1.05735e-06
1.03766e-06
1.0155e-06
9.90834e-07
9.6365e-07
9.33928e-07
9.01675e-07
8.66894e-07
8.29627e-07
7.89912e-07
7.47844e-07
7.03511e-07
6.57082e-07
6.08717e-07
5.58675e-07
5.07211e-07
4.54693e-07
4.015e-07
3.48139e-07
2.95172e-07
2.43304e-07
1.93268e-07
1.45721e-07
1.01058e-07
5.98721e-08
2.49083e-08
3.28675e-09
1.88297e-07
1.86287e-07
1.83339e-07
1.79734e-07
1.75522e-07
1.70737e-07
1.65412e-07
1.59585e-07
1.53297e-07
1.46595e-07
1.39529e-07
1.32152e-07
1.24519e-07
1.1669e-07
1.08723e-07
1.00679e-07
9.26139e-08
8.4588e-08
7.66536e-08
6.88634e-08
6.12618e-08
5.38913e-08
4.67852e-08
3.99754e-08
3.34896e-08
2.73633e-08
2.16415e-08
1.63704e-08
1.15592e-08
7.1788e-09
3.28653e-09
7.34579e-10
1.39498e-06
1.39499e-06
1.39502e-06
1.39507e-06
1.39514e-06
1.39523e-06
1.39535e-06
1.3955e-06
1.39569e-06
1.39592e-06
1.39621e-06
1.39657e-06
1.39703e-06
1.39762e-06
1.39839e-06
1.39941e-06
1.40079e-06
1.40266e-06
1.40521e-06
1.40866e-06
1.41319e-06
1.41878e-06
1.42476e-06
1.42823e-06
1.42572e-06
1.40628e-06
1.35388e-06
1.24509e-06
1.0535e-06
7.62548e-07
3.92913e-07
4.79119e-08
1.39499e-06
1.395e-06
1.39503e-06
1.39508e-06
1.39515e-06
1.39524e-06
1.39537e-06
1.39552e-06
1.39571e-06
1.39594e-06
1.39624e-06
1.39661e-06
1.39708e-06
1.39768e-06
1.39847e-06
1.39951e-06
1.40091e-06
1.40282e-06
1.40542e-06
1.40893e-06
1.41352e-06
1.41914e-06
1.4251e-06
1.42832e-06
1.42541e-06
1.40516e-06
1.35153e-06
1.24128e-06
1.04847e-06
7.57377e-07
3.89394e-07
4.74383e-08
1.39502e-06
1.39503e-06
1.39506e-06
1.39511e-06
1.39518e-06
1.39528e-06
1.3954e-06
1.39556e-06
1.39575e-06
1.39599e-06
1.3963e-06
1.39667e-06
1.39716e-06
1.39778e-06
1.39859e-06
1.39966e-06
1.40111e-06
1.40307e-06
1.40574e-06
1.40933e-06
1.41401e-06
1.41968e-06
1.4256e-06
1.42845e-06
1.42498e-06
1.40361e-06
1.34832e-06
1.23612e-06
1.04175e-06
7.50547e-07
3.84852e-07
4.68864e-08
1.39506e-06
1.39508e-06
1.39511e-06
1.39516e-06
1.39523e-06
1.39533e-06
1.39546e-06
1.39562e-06
1.39583e-06
1.39607e-06
1.39639e-06
1.39678e-06
1.39728e-06
1.39793e-06
1.39877e-06
1.39989e-06
1.40139e-06
1.40343e-06
1.4062e-06
1.4099e-06
1.41468e-06
1.42041e-06
1.42626e-06
1.42863e-06
1.42439e-06
1.40155e-06
1.34414e-06
1.22951e-06
1.03324e-06
7.42023e-07
3.79264e-07
4.62265e-08
1.39513e-06
1.39515e-06
1.39518e-06
1.39523e-06
1.39531e-06
1.39542e-06
1.39555e-06
1.39572e-06
1.39593e-06
1.39619e-06
1.39652e-06
1.39693e-06
1.39746e-06
1.39814e-06
1.39902e-06
1.4002e-06
1.40178e-06
1.40392e-06
1.40681e-06
1.41065e-06
1.41554e-06
1.42132e-06
1.42703e-06
1.42891e-06
1.42354e-06
1.39888e-06
1.33888e-06
1.22134e-06
1.0229e-06
7.31795e-07
3.72645e-07
4.54545e-08
1.39523e-06
1.39524e-06
1.39528e-06
1.39534e-06
1.39542e-06
1.39553e-06
1.39568e-06
1.39585e-06
1.39607e-06
1.39635e-06
1.39669e-06
1.39713e-06
1.39769e-06
1.39841e-06
1.39936e-06
1.40061e-06
1.40229e-06
1.40456e-06
1.40759e-06
1.41159e-06
1.41662e-06
1.42242e-06
1.42788e-06
1.42924e-06
1.42237e-06
1.3955e-06
1.33241e-06
1.21151e-06
1.01065e-06
7.19857e-07
3.65023e-07
4.45726e-08
1.39535e-06
1.39537e-06
1.39541e-06
1.39547e-06
1.39556e-06
1.39568e-06
1.39583e-06
1.39602e-06
1.39625e-06
1.39655e-06
1.39692e-06
1.39739e-06
1.39799e-06
1.39877e-06
1.39978e-06
1.40113e-06
1.40294e-06
1.40535e-06
1.40857e-06
1.41274e-06
1.41791e-06
1.42369e-06
1.42879e-06
1.42949e-06
1.42077e-06
1.39124e-06
1.32457e-06
1.19985e-06
9.96411e-07
7.06197e-07
3.56427e-07
4.35848e-08
1.3955e-06
1.39553e-06
1.39557e-06
1.39563e-06
1.39573e-06
1.39586e-06
1.39602e-06
1.39623e-06
1.39648e-06
1.3968e-06
1.3972e-06
1.39771e-06
1.39837e-06
1.39921e-06
1.40032e-06
1.40179e-06
1.40374e-06
1.40634e-06
1.40976e-06
1.41414e-06
1.41944e-06
1.42514e-06
1.4297e-06
1.42956e-06
1.41862e-06
1.38592e-06
1.31514e-06
1.18621e-06
9.80079e-07
6.90806e-07
3.46889e-07
4.24952e-08
1.39569e-06
1.39572e-06
1.39576e-06
1.39583e-06
1.39594e-06
1.39608e-06
1.39626e-06
1.39649e-06
1.39677e-06
1.39712e-06
1.39756e-06
1.39812e-06
1.39884e-06
1.39977e-06
1.40099e-06
1.4026e-06
1.40474e-06
1.40755e-06
1.4112e-06
1.41579e-06
1.42121e-06
1.4268e-06
1.4305e-06
1.42924e-06
1.41574e-06
1.37931e-06
1.3039e-06
1.1704e-06
9.61558e-07
6.73675e-07
3.36445e-07
4.13081e-08
1.39592e-06
1.39595e-06
1.396e-06
1.39608e-06
1.3962e-06
1.39635e-06
1.39655e-06
1.39681e-06
1.39712e-06
1.39752e-06
1.39801e-06
1.39864e-06
1.39944e-06
1.40048e-06
1.40184e-06
1.40362e-06
1.40596e-06
1.40902e-06
1.41292e-06
1.41773e-06
1.42322e-06
1.42858e-06
1.43117e-06
1.42834e-06
1.41188e-06
1.37114e-06
1.29058e-06
1.1522e-06
9.4074e-07
6.54802e-07
3.25135e-07
4.00277e-08
1.39621e-06
1.39625e-06
1.3963e-06
1.39639e-06
1.39652e-06
1.3967e-06
1.39692e-06
1.39721e-06
1.39756e-06
1.39801e-06
1.39858e-06
1.39929e-06
1.4002e-06
1.40137e-06
1.40289e-06
1.40488e-06
1.40747e-06
1.41079e-06
1.41496e-06
1.41995e-06
1.42541e-06
1.43034e-06
1.43166e-06
1.42667e-06
1.40672e-06
1.36108e-06
1.27487e-06
1.1314e-06
9.17522e-07
6.34194e-07
3.13005e-07
3.86579e-08
1.39657e-06
1.39662e-06
1.39668e-06
1.39679e-06
1.39694e-06
1.39714e-06
1.39739e-06
1.39772e-06
1.39812e-06
1.39864e-06
1.39928e-06
1.40011e-06
1.40115e-06
1.40249e-06
1.40421e-06
1.40644e-06
1.40931e-06
1.41292e-06
1.41734e-06
1.42245e-06
1.42772e-06
1.43185e-06
1.43188e-06
1.42392e-06
1.39986e-06
1.34873e-06
1.25642e-06
1.10775e-06
8.91799e-07
6.11864e-07
3.00107e-07
3.72027e-08
1.39703e-06
1.39708e-06
1.39717e-06
1.39729e-06
1.39746e-06
1.3977e-06
1.39799e-06
1.39837e-06
1.39884e-06
1.39944e-06
1.4002e-06
1.40115e-06
1.40237e-06
1.40391e-06
1.40588e-06
1.40838e-06
1.41154e-06
1.41545e-06
1.42009e-06
1.42521e-06
1.43011e-06
1.43292e-06
1.43128e-06
1.41974e-06
1.39087e-06
1.33365e-06
1.23486e-06
1.08099e-06
8.63483e-07
5.87848e-07
2.86495e-07
3.56652e-08
1.39762e-06