/*--------------------------------*- C++ -*----------------------------------*\
  =========                 |
  \\      /  F ield         | OpenFOAM: The Open Source CFD Toolbox
   \\    /   O peration     | Website:  https://openfoam.org
    \\  /    A nd           | Version:  11
     \\/     M anipulation  |
\*---------------------------------------------------------------------------*/
FoamFile
{
    format      ascii;
    class       volScalarField;
    location    "131";
    object      p;
}
// * * * * * * * * * * * * * * * * * * * * * * * * * * * * * * * * * * * * * //

dimensions      [0 2 -2 0 0 0 0];

internalField   nonuniform List<scalar> 
65536
(
-0.0679577
-0.0678547
-0.0676852
-0.0674378
-0.0671062
-0.066684
-0.0661633
-0.0655344
-0.0647854
-0.0639014
-0.0628645
-0.0616527
-0.0602389
-0.0585894
-0.0566623
-0.054404
-0.0517457
-0.048596
-0.0448304
-0.0402747
-0.0346761
-0.0276572
-0.0186406
-0.00672618
0.00949654
0.0322282
0.0649451
0.113076
0.183463
0.287247
0.477011
0.811079
-0.0678547
-0.06775
-0.0675782
-0.0673278
-0.0669923
-0.0665652
-0.0660386
-0.0654026
-0.064645
-0.0637509
-0.0627023
-0.0614766
-0.0600465
-0.058378
-0.0564283
-0.0541433
-0.051453
-0.0482644
-0.0444513
-0.0398366
-0.0341638
-0.0270509
-0.0179143
-0.00584856
0.0105582
0.0335062
0.0664719
0.114723
0.184683
0.289009
0.481936
0.803701
-0.0676853
-0.0675782
-0.0674035
-0.0671495
-0.0668093
-0.0663765
-0.0658429
-0.0651986
-0.0644314
-0.0635261
-0.0624644
-0.0612236
-0.059776
-0.0580871
-0.0561138
-0.053801
-0.0510778
-0.0478498
-0.0439887
-0.039314
-0.0335647
-0.0263521
-0.0170832
-0.00484005
0.0118031
0.0350622
0.0684332
0.117148
0.187479
0.292375
0.486248
0.805066
-0.067438
-0.0673279
-0.0671496
-0.0668908
-0.0665447
-0.0661045
-0.0655623
-0.0649079
-0.0641287
-0.0632096
-0.0621319
-0.0608728
-0.059404
-0.0576907
-0.055689
-0.0533432
-0.0505808
-0.0473058
-0.043387
-0.03864
-0.0327977
-0.0254623
-0.0160283
-0.00356087
0.013386
0.0370493
0.0709422
0.120286
0.191292
0.296914
0.491218
0.808562
-0.0671064
-0.0669925
-0.0668095
-0.0665447
-0.0661911
-0.065742
-0.0651891
-0.064522
-0.0637283
-0.0627923
-0.0616952
-0.0604137
-0.0589192
-0.0571763
-0.0551403
-0.0527543
-0.0499443
-0.046612
-0.0426227
-0.0377867
-0.031829
-0.0243406
-0.0147001
-0.00195158
0.0153755
0.0395426
0.0740771
0.124185
0.196037
0.302546
0.497205
0.812901
-0.0666844
-0.0665656
-0.0663767
-0.0661047
-0.0657421
-0.0652821
-0.0647163
-0.0640341
-0.0632228
-0.0622667
-0.0611463
-0.0598382
-0.0583132
-0.056535
-0.0544581
-0.0520242
-0.0491574
-0.0457563
-0.0416818
-0.0367378
-0.0306396
-0.0229643
-0.0130711
2.05376e-05
0.0178099
0.0425854
0.077887
0.1289
0.201748
0.309275
0.50427
0.818118
-0.0661639
-0.0660391
-0.0658433
-0.0655627
-0.0651893
-0.0647164
-0.0641353
-0.0634353
-0.0626034
-0.0616234
-0.0604758
-0.0591364
-0.0575755
-0.0557559
-0.0536308
-0.0511405
-0.0482063
-0.0447234
-0.0405472
-0.0354735
-0.029206
-0.021305
-0.0111075
0.00239563
0.0207356
0.0462289
0.0824256
0.134482
0.208466
0.317123
0.512421
0.824187
-0.0655353
-0.0654034
-0.0651994
-0.0649085
-0.0645226
-0.0640346
-0.0634356
-0.0627148
-0.0618587
-0.0608511
-0.0596717
-0.0582958
-0.0566931
-0.0548252
-0.0526439
-0.0500873
-0.0470738
-0.043494
-0.0391967
-0.0339681
-0.0274979
-0.0193271
-0.00876669
0.00522406
0.0242105
0.0505371
0.0877592
0.140995
0.216245
0.326129
0.521674
0.831067
-0.0647866
-0.0646462
-0.0644326
-0.0641298
-0.0637293
-0.0632237
-0.0626041
-0.0618591
-0.0609752
-0.0599355
-0.0587193
-0.0573014
-0.0556501
-0.0537262
-0.0514795
-0.0488453
-0.0457386
-0.0420443
-0.0376033
-0.0321901
-0.0254782
-0.0169861
-0.00599595
0.00856748
0.028305
0.0555871
0.0939678
0.148515
0.225151
0.336343
0.53205
0.838739
-0.0639033
-0.0637528
-0.0635279
-0.0632114
-0.0627939
-0.0622681
-0.0616247
-0.060852
-0.059936
-0.0588594
-0.0576009
-0.0561344
-0.0544271
-0.0524382
-0.0501152
-0.0473905
-0.0441741
-0.0403443
-0.0357325
-0.0300996
-0.0230998
-0.0142267
-0.00273019
0.0125014
0.0331041
0.061471
0.101146
0.157134
0.235265
0.347827
0.543579
0.847202
-0.0628672
-0.0627049
-0.062467
-0.0621345
-0.0616976
-0.0611486
-0.0604778
-0.0596733
-0.0587206
-0.0576017
-0.0562945
-0.0547719
-0.0529999
-0.0509354
-0.0485235
-0.0456924
-0.0423466
-0.0383562
-0.033541
-0.027646
-0.0203038
-0.0109794
0.00111135
0.0171181
0.0387107
0.0682986
0.109405
0.166958
0.246682
0.360651
0.556294
0.856454
-0.0616565
-0.0614803
-0.0612272
-0.0608763
-0.060417
-0.0598414
-0.0591393
-0.0582984
-0.0573035
-0.056136
-0.0547728
-0.0531855
-0.0513382
-0.0491857
-0.0466695
-0.0437129
-0.0402134
-0.0360315
-0.0309733
-0.0247651
-0.0170151
-0.00715742
0.00562866
0.0225303
0.0452477
0.0761989
0.118873
0.178107
0.259507
0.374897
0.570232
0.866499
-0.0602438
-0.0600513
-0.0597807
-0.0594086
-0.0589236
-0.0583174
-0.0575794
-0.0566967
-0.0556533
-0.0544298
-0.0530018
-0.0513393
-0.0494043
-0.0471484
-0.0445088
-0.0414028
-0.0377197
-0.033308
-0.0279581
-0.0213748
-0.013139
-0.00265165
0.0109453
0.028875
0.0528622
0.0853232
0.129699
0.190721
0.27386
0.390651
0.585433
0.877336
-0.0585957
-0.0583841
-0.0580931
-0.0576966
-0.057182
-0.0565405
-0.055761
-0.05483
-0.0537306
-0.052442
-0.0509386
-0.0491881
-0.0471498
-0.0447711
-0.0419842
-0.038699
-0.0347944
-0.0301052
-0.0244032
-0.0173694
-0.00855491
0.00267441
0.0172134
0.0363176
0.0617283
0.0958474
0.142053
0.204953
0.289873
0.408008
0.601935
0.888965
-0.0566701
-0.056436
-0.0561213
-0.0556964
-0.0551475
-0.0544651
-0.0536375
-0.0526502
-0.0514853
-0.0501206
-0.0485283
-0.0466735
-0.0445119
-0.041986
-0.0390212
-0.0355184
-0.0313443
-0.0263178
-0.0201893
-0.0126136
-0.00310981
0.00899136
0.0246196
0.0450571
0.0720512
0.107975
0.156126
0.220977
0.30769
0.42707
0.619778
0.901378
-0.0544137
-0.0541528
-0.0538104
-0.0533524
-0.0527632
-0.0520329
-0.0511489
-0.0500953
-0.0488529
-0.0473976
-0.045699
-0.0437188
-0.0414079
-0.0387029
-0.0355207
-0.0317511
-0.0272466
-0.0218074
-0.0151607
-0.00693251
0.00339044
0.0165119
0.0333922
0.0553316
0.084071
0.121939
0.172137
0.238986
0.327471
0.447943
0.638999
0.914562
-0.0517574
-0.0514645
-0.0510892
-0.050592
-0.0499554
-0.0491682
-0.0482168
-0.0470839
-0.0457483
-0.0441833
-0.0423552
-0.0402214
-0.037727
-0.0348007
-0.0313492
-0.0272494
-0.0223369
-0.0163909
-0.00911344
-0.000100987
0.0111919
0.0255003
0.0438086
0.0674243
0.0980674
0.138005
0.190329
0.259193
0.349385
0.470738
0.659631
0.928496
-0.04861
-0.0482782
-0.0478635
-0.0473194
-0.0466254
-0.0457694
-0.0447362
-0.0435065
-0.0420564
-0.040356
-0.0383673
-0.0360421
-0.0333179
-0.0301143
-0.0263256
-0.0218133
-0.0163942
-0.00982476
-0.00178037
0.0081715
0.0206062
0.0362842
0.0562049
0.0816703
0.114364
0.156477
0.210976
0.281834
0.373618
0.495565
0.681699
0.943147
-0.0448471
-0.0444678
-0.044005
-0.0434032
-0.0426387
-0.0416977
-0.0405627
-0.039212
-0.0376182
-0.0357471
-0.0335551
-0.0309869
-0.027971
-0.0244154
-0.0202005
-0.0151702
-0.00912064
-0.0017844
0.00718909
0.0182596
0.0320264
0.0492681
0.0709867
0.0984649
0.133335
0.177698
0.234382
0.307166
0.400363
0.522538
0.705218
0.958466
-0.0402943
-0.0398559
-0.0393332
-0.0386591
-0.0378056
-0.0367566
-0.0354921
-0.0339865
-0.0322082
-0.0301174
-0.0276635
-0.0247822
-0.0213914
-0.0173854
-0.0126287
-0.00694635
-0.000112813
0.00816262
0.0182546
0.0306444
0.0459485
0.0649505
0.0886433
0.118274
0.155413
0.202058
0.260888
0.335471
0.429829
0.551763
0.730195
0.974393
-0.0346988
-0.0341863
-0.033587
-0.03282
-0.0318512
-0.0306618
-0.029228
-0.0275198
-0.0254999
-0.0231214
-0.0203252
-0.0170363
-0.0131599
-0.00857548
-0.00312985
0.0033713
0.0111744
0.0205912
0.0320153
0.0459423
0.0629931
0.0839452
0.109764
0.141651
0.181099
0.230001
0.290877
0.367057
0.462229
0.583343
0.756616
0.990842
-0.0276833
-0.0270767
-0.0263778
-0.025488
-0.0243663
-0.02299
-0.0213308
-0.0193529
-0.0170119
-0.0142525
-0.0110053
-0.00718336
-0.00267767
0.00264832
0.00896531
0.0164862
0.0254755
0.0362614
0.0492487
0.0649362
0.0839372
0.107004
0.135063
0.169252
0.210986
0.262044
0.32478
0.40226
0.497786
0.617371
0.784453
1.00771
-0.0186703
-0.0179436
-0.0171124
-0.0160577
-0.0147295
-0.0131006
-0.0111373
-0.00879664
-0.00602616
-0.0027607
0.00108046
0.00559731
0.0109134
0.0171808
0.0245863
0.0333583
0.0437747
0.056172
0.0709566
0.0886179
0.109746
0.135053
0.165408
0.201879
0.245786
0.298798
0.36309
0.441445
0.536726
0.653927
0.813654
1.02486
-0.0067594
-0.00588148
-0.00487299
-0.00359394
-0.00198486
-1.30419e-05
0.00236168
0.00518967
0.00853254
0.0124658
0.0170817
0.0224929
0.0288363
0.0362774
0.0450152
0.055288
0.0673793
0.081625
0.0984211
0.118235
0.141618
0.16923
0.201867
0.240508
0.286374
0.341003
0.40639
0.485012
0.579268
0.693071
0.844151
1.04213
0.00945973
0.0105217
0.0117665
0.0133492
0.0153383
0.0177722
0.0206973
0.0241715
0.028265
0.0330631
0.0386683
0.0452037
0.0528161
0.0616797
0.0719996
0.0840163
0.0980097
0.114304
0.133275
0.155356
0.181049
0.210947
0.245761
0.286362
0.333841
0.389588
0.455383
0.533412
0.62562
0.734836
0.875855
1.05935
0.032188
0.0334662
0.035022
0.0370088
0.0395016
0.0425436
0.0461863
0.0504934
0.055542
0.0614244
0.0682499
0.0761477
0.085269
0.0957896
0.107913
0.121872
0.137934
0.156402
0.177621
0.201982
0.229932
0.261987
0.298755
0.340978
0.389576
0.445727
0.510967
0.587184
0.675978
0.779189
0.908651
1.07634
0.0649016
0.0664286
0.0683897
0.0708981
0.0740324
0.0778413
0.0823787
0.0877108
0.0939176
0.101094
0.10935
0.118815
0.129637
0.141985
0.156053
0.172058
0.190243
0.210885
0.234287
0.260794
0.290789
0.324703
0.36303
0.40635
0.455363
0.51096
0.574338
0.647084
0.730594
0.826022
0.942325
1.09293
0.11303
0.114676
0.117102
0.120239
0.124137
0.128851
0.134431
0.140942
0.14846
0.157076
0.166896
0.178042
0.19065
0.204875
0.220893
0.238894
0.259094
0.281729
0.307056
0.335361
0.366953
0.402167
0.44137
0.48496
0.533382
0.587173
0.647084
0.714268
0.790008
0.875248
0.976541
1.1089
0.183414
0.184634
0.18743
0.191242
0.195986
0.201695
0.208412
0.216188
0.225091
0.235202
0.246614
0.259434
0.273781
0.289787
0.307596
0.327368
0.349275
0.373501
0.400242
0.429707
0.462113
0.497682
0.53664
0.579205
0.625583
0.675963
0.730597
0.790017
0.855067
0.926844
1.01068
1.12363
0.287196
0.288958
0.292324
0.296862
0.302492
0.30922
0.317066
0.326069
0.336279
0.347758
0.360578
0.374817
0.390565
0.407914
0.426968
0.447832
0.470618
0.49544
0.522409
0.551635
0.583222
0.617262
0.653837
0.693005
0.734796
0.779173
0.826023
0.875265
0.926865
0.980611
1.04223
1.13498
0.476959
0.481885
0.486195
0.491165
0.49715
0.504212
0.512361
0.52161
0.531982
0.543506
0.556216
0.570147
0.58534
0.601834
0.619669
0.638881
0.659505
0.681567
0.705085
0.730064
0.756493
0.784344
0.813565
0.844088
0.875821
0.908641
0.942332
0.976557
1.0107
1.04226
1.06677
1.1301
0.811026
0.803648
0.805013
0.808507
0.812845
0.818059
0.824125
0.831001
0.838669
0.847126
0.856371
0.866409
0.877237
0.888857
0.90126
0.914436
0.928363
0.943009
0.958328
0.97426
0.99072
1.0076
1.02478
1.04208
1.05933
1.07635
1.09296
1.10893
1.12366
1.135
1.1301
1.09066
-0.0680413
-0.0679611
-0.067799
-0.0675506
-0.067213
-0.0667803
-0.0662446
-0.0655954
-0.0648201
-0.0639023
-0.0628221
-0.0615547
-0.0600694
-0.0583275
-0.0562808
-0.0538683
-0.0510124
-0.0476148
-0.0435505
-0.038663
-0.0327602
-0.0256166
-0.0169895
-0.00666546
0.00543441
0.0190364
0.0331449
0.0455648
0.0519588
0.0430444
0.0039009
-0.053196
-0.0679611
-0.0678795
-0.0677158
-0.0674649
-0.0671241
-0.0666873
-0.0661466
-0.0654917
-0.0647094
-0.0637835
-0.0626939
-0.0614156
-0.0599176
-0.0581612
-0.0560979
-0.0536665
-0.0507894
-0.0473682
-0.0432784
-0.0383642
-0.0324354
-0.0252691
-0.016627
-0.00630107
0.00578151
0.0193451
0.0334226
0.0458989
0.0524397
0.0437591
0.00655795
-0.0466275
-0.067799
-0.0677158
-0.0675496
-0.0672952
-0.0669497
-0.0665073
-0.0659598
-0.0652967
-0.0645048
-0.0635677
-0.062465
-0.0611715
-0.0596558
-0.057879
-0.0557919
-0.0533329
-0.0504237
-0.0469656
-0.0428335
-0.0378721
-0.0318918
-0.0246731
-0.0159833
-0.00562499
0.00645689
0.0199608
0.0338943
0.046125
0.0522696
0.0430632
0.00579271
-0.0469788
-0.0675507
-0.067465
-0.0672952
-0.0670361
-0.0666844
-0.0662344
-0.0656778
-0.065004
-0.0641995
-0.0632477
-0.0621279
-0.0608145
-0.0592759
-0.0574723
-0.0553543
-0.0528593
-0.0499085
-0.0464022
-0.0422152
-0.0371921
-0.0311451
-0.0238584
-0.0151079
-0.0047111
0.00736188
0.020772
0.0344796
0.0463012
0.051812
0.0418116
0.00384424
-0.0494541
-0.0672132
-0.0671242
-0.0669498
-0.0666845
-0.066325
-0.0658655
-0.0652975
-0.0646101
-0.0637897
-0.0628195
-0.0616783
-0.0603402
-0.0587728
-0.0569361
-0.0547796
-0.0522401
-0.0492378
-0.0456724
-0.0414182
-0.0363203
-0.0301932
-0.0228269
-0.0140084
-0.00357514
0.00847035
0.0217419
0.0351397
0.0464149
0.0511062
0.0401151
0.00123236
-0.0528154
-0.0667806
-0.0666876
-0.0665075
-0.0662346
-0.0658656
-0.0653944
-0.0648124
-0.0641085
-0.0632689
-0.0622763
-0.0611092
-0.0597411
-0.0581392
-0.0562624
-0.0540597
-0.0514667
-0.0484028
-0.0447669
-0.0404331
-0.0352475
-0.0290282
-0.0215725
-0.0126821
-0.00221978
0.00977212
0.0228506
0.0358442
0.0464286
0.0501087
0.0379173
-0.00206574
-0.0570188
-0.066245
-0.0661471
-0.0659601
-0.0656782
-0.0652977
-0.0648125
-0.0642138
-0.0634903
-0.0626278
-0.0616085
-0.0604106
-0.059007
-0.0573641
-0.05544
-0.0531827
-0.0505269
-0.0473909
-0.043673
-0.0392474
-0.033962
-0.0276396
-0.0200875
-0.011126
-0.00064851
0.0112548
0.0240747
0.0365588
0.0463003
0.0487762
0.0351835
-0.00606155
-0.062044
-0.0655961
-0.0654924
-0.0652973
-0.0650046
-0.0646106
-0.0641089
-0.0634905
-0.0627439
-0.0618544
-0.0608038
-0.0595699
-0.0581246
-0.0564338
-0.0544546
-0.0521338
-0.0494052
-0.0461863
-0.0423747
-0.0378454
-0.0324491
-0.026015
-0.0183634
-0.0093371
0.00113319
0.012902
0.0253852
0.0372419
0.0459795
0.0470582
0.0318779
-0.0107578
-0.0678556
-0.0648211
-0.0647105
-0.0645058
-0.0642005
-0.0637906
-0.0632697
-0.0626284
-0.0618547
-0.0609337
-0.0598468
-0.0585709
-0.0570773
-0.055331
-0.0532882
-0.0508945
-0.0480828
-0.0447696
-0.0408528
-0.0362086
-0.0306918
-0.0241405
-0.0163911
-0.00731404
0.00311655
0.014692
0.0267456
0.0378421
0.0454042
0.044891
0.0279512
-0.016173
-0.0744382
-0.0639039
-0.0637851
-0.0635693
-0.0632492
-0.0628209
-0.0622776
-0.0616096
-0.0608047
-0.0598473
-0.0587183
-0.0573938
-0.0558446
-0.0540346
-0.0519189
-0.0494422
-0.0465364
-0.0431177
-0.0390845
-0.0343155
-0.0286713
-0.0220014
-0.0141626
-0.00505808
0.00528762
0.0165952
0.0281088
0.038296
0.0444993
0.0421985
0.0233422
-0.0223384
-0.0817915
-0.0628245
-0.0626962
-0.0624673
-0.0621301
-0.0616804
-0.0611112
-0.0604124
-0.0595714
-0.058572
-0.0573945
-0.0560143
-0.0544013
-0.0525184
-0.0503199
-0.0477495
-0.0447384
-0.0412031
-0.0370432
-0.0321415
-0.0263667
-0.0195829
-0.0116717
-0.00257514
0.007625
0.0185718
0.0294154
0.0385261
0.0431755
0.0388922
0.0179805
-0.0292923
-0.0899211
-0.061558
-0.0614188
-0.0611747
-0.0608176
-0.0603431
-0.0597439
-0.0590096
-0.0581269
-0.0570793
-0.0558461
-0.0544022
-0.0527163
-0.0507507
-0.0484586
-0.0457834
-0.0426559
-0.0389935
-0.0346985
-0.0296596
-0.0237563
-0.0168714
-0.00891619
0.000121892
0.0100971
0.0205689
0.0305906
0.0384387
0.0413284
0.034872
0.0117884
-0.0370766
-0.0988338
-0.0600737
-0.0599218
-0.0596601
-0.05928
-0.0587768
-0.058143
-0.0573676
-0.056437
-0.0553339
-0.054037
-0.0525202
-0.0507517
-0.0486926
-0.0462958
-0.0435043
-0.0402498
-0.0364514
-0.032016
-0.0268404
-0.0208185
-0.0138561
-0.00590019
0.00301027
0.012659
0.0225173
0.0315414
0.0379218
0.0388379
0.0300266
0.00468356
-0.0457344
-0.108535
-0.058333
-0.0581667
-0.0578844
-0.0574776
-0.0569413
-0.0562674
-0.0554447
-0.0544589
-0.0532922
-0.0519224
-0.0503228
-0.0484608
-0.046297
-0.0437842
-0.0408657
-0.0374749
-0.0335346
-0.0289581
-0.0236538
-0.0175337
-0.010532
-0.00263723
0.00605364
0.0152484
0.0243275
0.0321535
0.0368435
0.0355676
0.0242351
-0.00341998
-0.0553068
-0.119027
-0.0562878
-0.0561048
-0.0557987
-0.055361
-0.0547861
-0.054066
-0.0531887
-0.0521395
-0.0508999
-0.0494471
-0.0477538
-0.045787
-0.0435071
-0.0408672
-0.0378124
-0.0342791
-0.0301955
-0.0254849
-0.0200704
-0.0138872
-0.00690322
0.000845277
0.00919734
0.0177808
0.0258857
0.0322881
0.0350498
0.031365
0.017369
-0.0126069
-0.0658313
-0.130304
-0.0538769
-0.0536751
-0.0533413
-0.0528676
-0.0522482
-0.0514746
-0.0505345
-0.0494125
-0.0480897
-0.0465429
-0.0447444
-0.0426612
-0.0402543
-0.0374782
-0.0342809
-0.0306038
-0.0263838
-0.0215566
-0.0160653
-0.0098732
-0.00298806
0.00450031
0.0123624
0.0201442
0.027049
0.0317789
0.0323639
0.0260633
0.00929543
-0.0229592
-0.0773367
-0.142351
-0.0510229
-0.0507998
-0.0504341
-0.0499187
-0.0492478
-0.0484126
-0.0474004
-0.0461954
-0.0447784
-0.0431261
-0.041211
-0.0390007
-0.0364579
-0.03354
-0.0301997
-0.0263861
-0.0220476
-0.0171375
-0.011623
-0.00550164
0.00117337
0.00825364
0.015438
0.0221923
0.0276408
0.030429
0.0285864
0.0194834
-0.000118473
-0.0345486
-0.089842
-0.155143
-0.0476274
-0.0473807
-0.046978
-0.0464145
-0.0456846
-0.0447788
-0.0436846
-0.042386
-0.0408638
-0.0390951
-0.0370533
-0.034708
-0.0320248
-0.028966
-0.0254916
-0.0215617
-0.0171403
-0.0122026
-0.0067459
-0.00080722
0.0055095
0.0119936
0.0182726
0.0237367
0.0274448
0.0280092
0.0234957
0.011439
-0.010999
-0.0474347
-0.10335
-0.168637
-0.0435656
-0.0432933
-0.0428484
-0.04223
-0.0414328
-0.0404475
-0.0392615
-0.0378593
-0.0362222
-0.0343286
-0.0321542
-0.0296718
-0.026852
-0.0236646
-0.0200801
-0.0160735
-0.0116292
-0.00674935
-0.00146673
0.00413707
0.0099033
0.0155587
0.0206619
0.0245386
0.0262003
0.0242563
0.0168521
0.00174238
-0.0234588
-0.0616536
-0.117844
-0.182773
-0.0386808
-0.0383819
-0.0378896
-0.0372096
-0.0363376
-0.0352647
-0.033979
-0.0324659
-0.0307084
-0.0286875
-0.0263825
-0.0237717
-0.0208334
-0.017548
-0.0139005
-0.00988532
-0.00551195
-0.000815037
0.00413267
0.00920063
0.0141748
0.0187202
0.0223365
0.0242987
0.0235973
0.0188744
0.00840344
-0.0097847
-0.0375858
-0.0772168
-0.133283
-0.197469
-0.0327809
-0.0324559
-0.0319123
-0.0311655
-0.0302136
-0.0290484
-0.0276597
-0.026035
-0.0241604
-0.0220211
-0.0196024
-0.0168905
-0.013875
-0.0105505
-0.00692105
-0.00300501
0.00115786
0.00549618
0.00989331
0.0141691
0.0180547
0.0211625
0.0229435
0.0226476
0.0192729
0.0115377
-0.00210529
-0.0232997
-0.0534339
-0.0940961
-0.149599
-0.212618
-0.0256405
-0.0252928
-0.0246967
-0.0238821
-0.0228505
-0.0215961
-0.0201111
-0.018387
-0.0164147
-0.0141861
-0.0116952
-0.00893968
-0.00592365
-0.00266066
0.000821975
0.00447736
0.00823149
0.0119732
0.0155411
0.018707
0.021155
0.0224543
0.0220315
0.0191335
0.01281
0.00189805
-0.0149197
-0.0389232
-0.0710072
-0.112227
-0.166689
-0.228082
-0.0170167
-0.0166541
-0.0160103
-0.015135
-0.0140355
-0.0127093
-0.0111533
-0.00936458
-0.00734169
-0.00508593
-0.00260325
9.34527e-05
0.00298142
0.00602429
0.00916742
0.012332
0.0154076
0.0182429
0.0206345
0.0223131
0.0229266
0.022022
0.0190228
0.0132163
0.00373647
-0.0104049
-0.0302578
-0.0567237
-0.0902531
-0.131489
-0.184419
-0.243698
-0.00669609
-0.00633157
-0.00565552
-0.00474173
-0.00360594
-0.00225081
-0.000679819
0.00110154
0.00308447
0.00525503
0.00759178
0.0100631
0.012624
0.0152121
0.0177431
0.0201049
0.0221517
0.0236957
0.0244987
0.0242624
0.0226174
0.0191124
0.0132047
0.00425451
-0.00846198
-0.0257294
-0.0482947
-0.0767031
-0.111051
-0.151721
-0.202613
-0.259265
0.00540031
0.00574754
0.00642284
0.00732763
0.0084358
0.00973719
0.0112194
0.012866
0.0146552
0.0165575
0.018533
0.0205287
0.0224754
0.0242833
0.0258389
0.0269995
0.0275884
0.0273904
0.0261456
0.023545
0.0192268
0.0127732
0.00371223
-0.00847462
-0.0243364
-0.0444071
-0.0691493
-0.0987974
-0.133228
-0.172707
-0.221061
-0.274551
0.0189989
0.0193077
0.0199233
0.0207342
0.0217036
0.0228117
0.0240351
0.0253447
0.0267039
0.0280657
0.0293707
0.0305437
0.0314919
0.0321007
0.0322314
0.0317179
0.0303638
0.0279403
0.0241856
0.0188048
0.0114736
0.00184399
-0.0104456
-0.0257542
-0.0444193
-0.0667286
-0.0928749
-0.122894
-0.156579
-0.194226
-0.239518
-0.289277
0.0331042
0.0333819
0.0338534
0.0344383
0.0350978
0.0358015
0.036515
0.0371968
0.0377955
0.0382474
0.0384751
0.0383848
0.0378643
0.0367815
0.0349827
0.0322912
0.0285079
0.0234121
0.0167654
0.00831674
-0.00218755
-0.0149919
-0.030315
-0.0483342
-0.0691703
-0.0928833
-0.119475
-0.148878
-0.180952
-0.216087
-0.257739
-0.30313
0.0455211
0.0458553
0.0460811
0.0462568
0.0463697
0.0463823
0.0462526
0.0459301
0.0453527
0.0444452
0.0431183
0.0412674
0.0387723
0.0354964
0.0312875
0.0259791
0.0193924
0.0113419
0.00164139
-0.00988628
-0.0233974
-0.0390114
-0.0567964
-0.0767561
-0.0988293
-0.122906
-0.148878
-0.176683
-0.206317
-0.238261
-0.275543
-0.315772
0.0519127
0.0523936
0.0522231
0.0517648
0.051058
0.0500591
0.0487249
0.0470047
0.0448349
0.0421392
0.038829
0.0348041
0.0299531
0.0241552
0.0172819
0.00920081
-0.000220423
-0.0111072
-0.0235711
-0.0376986
-0.0535424
-0.0711059
-0.0903366
-0.111115
-0.133269
-0.156598
-0.18095
-0.206304
-0.232802
-0.260896
-0.292944
-0.327023
0.0429962
0.043711
0.0430146
0.0417622
0.0400644
0.037865
0.0351291
0.0318209
0.027891
0.0232781
0.0179118
0.0117143
0.00460319
-0.0035075
-0.0127021
-0.0230624
-0.034659
-0.0475511
-0.0617735
-0.0773366
-0.0942109
-0.112331
-0.131577
-0.151787
-0.172752
-0.194251
-0.216092
-0.238242
-0.260864
-0.284259
-0.309988
-0.336791
0.00385135
0.00650849
0.00574275
0.00379329
0.00117996
-0.00212005
-0.00611829
-0.0108175
-0.0162363
-0.0224061
-0.0293652
-0.0371555
-0.0458202
-0.0554002
-0.0659327
-0.077446
-0.0899585
-0.103471
-0.117968
-0.133406
-0.149716
-0.166795
-0.184507
-0.202677
-0.2211
-0.239537
-0.257745
-0.275537
-0.292915
-0.309949
-0.32718
-0.344327
-0.0532467
-0.0466779
-0.0470299
-0.0495063
-0.0528692
-0.0570748
-0.0621027
-0.0679176
-0.0745044
-0.0818625
-0.0899978
-0.0989173
-0.108626
-0.119126
-0.130412
-0.142468
-0.155266
-0.168765
-0.182903
-0.197596
-0.212736
-0.228187
-0.243783
-0.259324
-0.274579
-0.289277
-0.30311
-0.315747
-0.326999
-0.336765
-0.344312
-0.347798
-0.0690377
-0.0689647
-0.0688213
-0.0686026
-0.0683061
-0.0679267
-0.0674582
-0.0668927
-0.0662205
-0.0654298
-0.0645066
-0.0634341
-0.0621928
-0.0607603
-0.0591109
-0.0572165
-0.0550475
-0.0525753
-0.0497771
-0.0466448
-0.043199
-0.0395133
-0.0357508
-0.0322179
-0.0294345
-0.0282146
-0.0297549
-0.0356526
-0.0475608
-0.0674221
-0.101752
-0.14771
-0.0689647
-0.06889
-0.0687452
-0.0685244
-0.0682249
-0.0678418
-0.0673688
-0.066798
-0.0661196
-0.0653216
-0.06439
-0.063308
-0.0620559
-0.0606113
-0.0589486
-0.0570397
-0.0548553
-0.0523674
-0.0495542
-0.046409
-0.0429549
-0.0392688
-0.0355182
-0.0320148
-0.0292832
-0.0281439
-0.0298022
-0.0358386
-0.0478906
-0.0682866
-0.1037
-0.149448
-0.0688213
-0.0687452
-0.0685983
-0.0683746
-0.0680713
-0.0676836
-0.0672052
-0.0666279
-0.065942
-0.0651355
-0.0641941
-0.0631012
-0.061837
-0.0603792
-0.0587022
-0.0567784
-0.054579
-0.0520772
-0.0492528
-0.0461017
-0.0426507
-0.038982
-0.03527
-0.0318342
-0.0292072
-0.028216
-0.0300681
-0.0363261
-0.0485822
-0.0691938
-0.104833
-0.150412
-0.0686027
-0.0685245
-0.0683746
-0.068147
-0.0678388
-0.0674453
-0.0669598
-0.0663744
-0.0656792
-0.0648621
-0.0639088
-0.0628026
-0.061524
-0.0600505
-0.058357
-0.0564165
-0.0542011
-0.0516853
-0.0488515
-0.0456989
-0.0422593
-0.0386213
-0.0349675
-0.0316267
-0.0291396
-0.0283372
-0.0304219
-0.0369317
-0.0494096
-0.070158
-0.10577
-0.151047
-0.0683062
-0.068225
-0.0680714
-0.0678389
-0.0675246
-0.0671237
-0.0666297
-0.0660343
-0.0653277
-0.0644977
-0.0635301
-0.0624081
-0.0611122
-0.0596204
-0.057908
-0.0559486
-0.0537157
-0.0511858
-0.0483441
-0.0451943
-0.0417739
-0.0381796
-0.0346034
-0.0313843
-0.0290712
-0.0284968
-0.0308522
-0.0376434
-0.0503571
-0.0712261
-0.106728
-0.151569
-0.0679269
-0.067842
-0.0676838
-0.0674454
-0.0671238
-0.0667141
-0.0662098
-0.0656026
-0.0648824
-0.0640373
-0.0630529
-0.0619125
-0.0605969
-0.0590842
-0.0573505
-0.0553703
-0.0531189
-0.0505752
-0.0477281
-0.0445864
-0.0411948
-0.0376589
-0.0341817
-0.0311129
-0.0290094
-0.0287036
-0.0313701
-0.0384737
-0.0514355
-0.0724079
-0.107734
-0.152023
-0.0674585
-0.0673692
-0.0672054
-0.06696
-0.0666298
-0.0662099
-0.0656935
-0.0650725
-0.0643367
-0.0634741
-0.0624705
-0.0613092
-0.0599712
-0.0584353
-0.0566783
-0.0546761
-0.0524059
-0.0498498
-0.0470009
-0.0438743
-0.0405229
-0.0370625
-0.0337079
-0.0308202
-0.0289636
-0.028967
-0.0319829
-0.0394266
-0.0526439
-0.0736976
-0.108783
-0.152413
-0.0668933
-0.0667986
-0.0666284
-0.0663749
-0.0660347
-0.0656029
-0.0650727
-0.0644358
-0.0636822
-0.0627998
-0.0617745
-0.0605899
-0.0592273
-0.0576662
-0.0558843
-0.0538595
-0.0515712
-0.0490052
-0.04616
-0.0430576
-0.0397602
-0.0363951
-0.0331894
-0.0305158
-0.028944
-0.0292963
-0.032697
-0.0405032
-0.0539765
-0.0750845
-0.109864
-0.152734
-0.0662214
-0.0661204
-0.0659428
-0.06568
-0.0653284
-0.064883
-0.0643372
-0.0636825
-0.0629089
-0.0620045
-0.0609552
-0.059745
-0.0583558
-0.0567679
-0.0549604
-0.0529132
-0.0506087
-0.0480372
-0.0452032
-0.0421366
-0.03891
-0.0356629
-0.0326354
-0.0302108
-0.0289625
-0.0297018
-0.0335181
-0.0417019
-0.0554237
-0.0765531
-0.110961
-0.152972
-0.0654312
-0.065323
-0.0651368
-0.0648633
-0.0644989
-0.0640384
-0.063475
-0.0628005
-0.0620049
-0.0610762
-0.0600009
-0.0587632
-0.057346
-0.0557304
-0.0538975
-0.0518295
-0.0495127
-0.0469422
-0.0441293
-0.0411132
-0.0379775
-0.0348745
-0.0320572
-0.0299183
-0.029032
-0.0301934
-0.0344503
-0.0430183
-0.0569715
-0.0780819
-0.112048
-0.153107
-0.0645085
-0.064392
-0.0641961
-0.0639107
-0.0635319
-0.0630545
-0.0624719
-0.0617758
-0.0609561
-0.0600014
-0.0588983
-0.0576319
-0.0561858
-0.0545429
-0.0526861
-0.0506008
-0.0482774
-0.045717
-0.0429387
-0.0399912
-0.0369702
-0.0340409
-0.0314685
-0.0296531
-0.0291658
-0.0307802
-0.035495
-0.0444436
-0.0586006
-0.0796446
-0.113099
-0.153113
-0.0634368
-0.0633107
-0.0631039
-0.0628052
-0.0624106
-0.0619148
-0.0613113
-0.0605918
-0.0597466
-0.0587645
-0.0576326
-0.0563369
-0.0548624
-0.0531937
-0.0513164
-0.0492195
-0.0468984
-0.0443606
-0.0416338
-0.0387772
-0.0358987
-0.0331762
-0.0308856
-0.0294318
-0.0293781
-0.0314703
-0.036651
-0.0459651
-0.0602872
-0.0812101
-0.11408
-0.152962
-0.0621964
-0.0620595
-0.0618406
-0.0615274
-0.0611156
-0.0606
-0.0599742
-0.0592301
-0.0583582
-0.057348
-0.0561873
-0.0548632
-0.0533622
-0.0516714
-0.0497796
-0.0476798
-0.0453732
-0.0428745
-0.0402206
-0.0374817
-0.0347776
-0.0322982
-0.0303279
-0.0292728
-0.0296828
-0.0322699
-0.0379133
-0.047565
-0.0620026
-0.0827434
-0.114956
-0.152622
-0.0607649
-0.060616
-0.0603838
-0.0600549
-0.0596248
-0.0590884
-0.0584393
-0.0576699
-0.0567713
-0.0557334
-0.0545452
-0.0531953
-0.0516723
-0.0499659
-0.0480686
-0.0459785
-0.043703
-0.0412648
-0.0387102
-0.0361205
-0.033627
-0.0314296
-0.0298187
-0.0291965
-0.0300943
-0.0331831
-0.0392733
-0.0492212
-0.0637141
-0.0842076
-0.11569
-0.152064
-0.0591168
-0.0589545
-0.058708
-0.0583627
-0.0579136
-0.0573558
-0.0566834
-0.0558892
-0.054965
-0.0539016
-0.0526896
-0.0513193
-0.0497816
-0.0480697
-0.0461804
-0.0441173
-0.0418948
-0.0395439
-0.0371207
-0.0347168
-0.0324738
-0.0305994
-0.0293857
-0.0292261
-0.0306268
-0.034212
-0.0407186
-0.0509077
-0.0653866
-0.0855638
-0.116245
-0.151256
-0.0572239
-0.057047
-0.0567856
-0.0564236
-0.0559556
-0.0553771
-0.0546826
-0.0538657
-0.0529191
-0.051835
-0.0506057
-0.0492238
-0.0476832
-0.0459809
-0.0441187
-0.042106
-0.0399648
-0.0377345
-0.0354805
-0.033304
-0.0313545
-0.0298443
-0.0290623
-0.0293876
-0.0312952
-0.0353572
-0.0422343
-0.0525961
-0.0669841
-0.0867761
-0.116586
-0.15017
-0.0550565
-0.0548643
-0.054588
-0.0542098
-0.0537243
-0.0531273
-0.0524141
-0.0515791
-0.0506163
-0.0495199
-0.0482841
-0.0469044
-0.0453783
-0.0437071
-0.0418978
-0.0399665
-0.0379421
-0.0358727
-0.0338318
-0.0319285
-0.0303173
-0.0292106
-0.0288892
-0.0297115
-0.0321161
-0.0366188
-0.0438043
-0.0542583
-0.0684737
-0.0878115
-0.116684
-0.148785
-0.0525862
-0.0523783
-0.052088
-0.051696
-0.0511963
-0.0505856
-0.0498599
-0.049015
-0.0480468
-0.0469513
-0.0457257
-0.0443687
-0.0428818
-0.0412711
-0.0395491
-0.0377382
-0.0358748
-0.0340137
-0.0322356
-0.0306543
-0.0294257
-0.0287574
-0.0289163
-0.0302346
-0.0331095
-0.037999
-0.0454148
-0.0558702
-0.0698292
-0.0886476
-0.116517
-0.147084
-0.0497902
-0.0495672
-0.0492658
-0.0488644
-0.0483568
-0.0477407
-0.0470133
-0.0461721
-0.045215
-0.0441408
-0.0429497
-0.0416443
-0.0402304
-0.0387191
-0.0371284
-0.0354869
-0.0338366
-0.0322383
-0.0307767
-0.0295669
-0.0287619
-0.0285586
-0.0292049
-0.0310015
-0.0343014
-0.0395052
-0.0470582
-0.0574172
-0.0710371
-0.089273
-0.116077
-0.145063
-0.0466603
-0.0464245
-0.0461171
-0.0457142
-0.0452095
-0.0446014
-0.0438892
-0.0430722
-0.042151
-0.0411273
-0.040005
-0.0387906
-0.0374945
-0.0361325
-0.0347279
-0.0333139
-0.0319369
-0.0306607
-0.0295706
-0.0287791
-0.0284305
-0.0287069
-0.0298306
-0.0320685
-0.0357273
-0.0411545
-0.0487397
-0.0589008
-0.0721028
-0.0896978
-0.115368
-0.142729
-0.0432172
-0.042973
-0.0426688
-0.0422773
-0.0417919
-0.0412126
-0.0405406
-0.0397777
-0.0389274
-0.0379947
-0.0369872
-0.0359153
-0.0347939
-0.0336427
-0.0324889
-0.0313688
-0.0303304
-0.0294371
-0.0287706
-0.0284356
-0.0285636
-0.0293152
-0.0308865
-0.0335053
-0.0374366
-0.0429802
-0.0504841
-0.0603472
-0.0730584
-0.0899527
-0.114415
-0.140105
-0.0395343
-0.0392898
-0.039003
-0.0386422
-0.0382005
-0.0376798
-0.0370834
-0.0364159
-0.0356836
-0.0348952
-0.0340615
-0.0331967
-0.0323185
-0.0314499
-0.0306195
-0.029864
-0.0292298
-0.0287753
-0.0285744
-0.028719
-0.0293223
-0.0305225
-0.0324836
-0.035401
-0.0394976
-0.045039
-0.052346
-0.0618159
-0.0739685
-0.0901017
-0.113268
-0.137234
-0.0357749
-0.0355423
-0.0352941
-0.0349916
-0.0346276
-0.0342059
-0.0337322
-0.0332138
-0.0326599
-0.0320818
-0.0314932
-0.0309105
-0.0303531
-0.0298443
-0.0294118
-0.0290889
-0.0289161
-0.0289428
-0.0292298
-0.0298523
-0.0309025
-0.0324927
-0.0347599
-0.037865
-0.0420059
-0.0474194
-0.0544184
-0.0634097
-0.0749395
-0.0902361
-0.112002
-0.13418
-0.0322453
-0.0320421
-0.0318616
-0.0316541
-0.0314118
-0.0311406
-0.0308481
-0.030544
-0.0302393
-0.0299472
-0.0296825
-0.0294618
-0.0293036
-0.0292284
-0.0292593
-0.0294224
-0.0297478
-0.0302717
-0.0310382
-0.0321023
-0.0335339
-0.0354214