/*--------------------------------*- C++ -*----------------------------------*\
  =========                 |
  \\      /  F ield         | OpenFOAM: The Open Source CFD Toolbox
   \\    /   O peration     | Website:  https://openfoam.org
    \\  /    A nd           | Version:  11
     \\/     M anipulation  |
\*---------------------------------------------------------------------------*/
FoamFile
{
    format      ascii;
    class       surfaceScalarField;
    location    "131";
    object      phi;
}
// * * * * * * * * * * * * * * * * * * * * * * * * * * * * * * * * * * * * * //

dimensions      [0 3 -1 0 0 0 0];

internalField   nonuniform List<scalar> 
191488
(
-1.55851e-05
-1.55852e-05
0.00100983
-3.12051e-05
-1.55957e-05
0.00101166
-4.68473e-05
-1.56162e-05
0.0010129
-6.24896e-05
-1.56467e-05
0.00101354
-7.81084e-05
-1.56872e-05
0.00101357
-9.36794e-05
-1.57378e-05
0.00101299
-0.000109179
-1.57987e-05
0.00101181
-0.000124584
-1.58698e-05
0.00101003
-0.000139874
-1.59513e-05
0.00100765
-0.000155026
-1.60434e-05
0.00100469
-0.000170023
-1.61462e-05
0.00100113
-0.000184849
-1.62601e-05
0.000996995
-0.000199489
-1.63855e-05
0.000992288
-0.000213935
-1.65231e-05
0.000987016
-0.000228186
-1.66738e-05
0.000981194
-0.000242249
-1.6839e-05
0.000974837
-0.000256149
-1.70208e-05
0.000967969
-0.000269936
-1.72223e-05
0.000960625
-0.000283702
-1.74487e-05
0.000952858
-0.000297609
-1.77074e-05
0.000944751
-0.000311926
-1.80106e-05
0.000936431
-0.000327098
-1.8377e-05
0.000928098
-0.00034382
-1.88356e-05
0.000920041
-0.00036314
-1.94287e-05
0.000912659
-0.000386484
-2.02155e-05
0.000906402
-0.000415482
-2.12707e-05
0.000901553
-0.000451144
-2.26617e-05
0.000897569
-0.000491537
-2.43272e-05
0.000891456
-0.000526108
-2.59709e-05
0.000874305
-0.00052321
-2.73799e-05
0.00082482
-0.000406233
-2.58689e-05
0.000695363
-9.418e-06
0.000375352
-1.55957e-05
-3.12052e-05
0.00101166
-3.12252e-05
-3.12252e-05
0.00101347
-4.68767e-05
-3.1265e-05
0.00101467
-6.25281e-05
-3.13243e-05
0.00101525
-7.81554e-05
-3.14032e-05
0.0010152
-9.37347e-05
-3.15018e-05
0.00101454
-0.000109242
-3.16203e-05
0.00101326
-0.000124655
-3.17587e-05
0.00101136
-0.000139952
-3.19172e-05
0.00100886
-0.000155112
-3.20962e-05
0.00100574
-0.000170117
-3.22959e-05
0.00100203
-0.00018495
-3.25171e-05
0.000997721
-0.000199598
-3.27605e-05
0.000992827
-0.000214053
-3.30274e-05
0.000987355
-0.000228313
-3.33194e-05
0.000981319
-0.000242388
-3.36393e-05
0.000974736
-0.000256302
-3.39911e-05
0.00096763
-0.000270108
-3.4381e-05
0.000960035
-0.000283901
-3.48189e-05
0.000952008
-0.000297844
-3.53204e-05
0.00094363
-0.000312212
-3.59103e-05
0.000935034
-0.000327454
-3.66278e-05
0.000926419
-0.000344273
-3.75337e-05
0.000918081
-0.000363711
-3.87193e-05
0.000910418
-0.000387185
-4.03138e-05
0.000903878
-0.000416282
-4.24808e-05
0.000898733
-0.00045193
-4.53715e-05
0.000894416
-0.000491974
-4.89632e-05
0.000887892
-0.000525523
-5.28204e-05
0.000870293
-0.000521972
-5.55493e-05
0.000820737
-0.000407387
-5.1075e-05
0.000692516
-2.47747e-05
0.0003752
-1.56162e-05
-4.68474e-05
0.0010129
-3.1265e-05
-4.68767e-05
0.00101467
-4.6935e-05
-4.6935e-05
0.00101581
-6.26041e-05
-4.70219e-05
0.00101631
-7.82484e-05
-4.71376e-05
0.00101618
-9.38439e-05
-4.7282e-05
0.00101541
-0.000109367
-4.74556e-05
0.00101401
-0.000124795
-4.76583e-05
0.00101198
-0.000140106
-4.78905e-05
0.00100932
-0.00015528
-4.81527e-05
0.00100604
-0.000170298
-4.84454e-05
0.00100215
-0.000185144
-4.87695e-05
0.000997645
-0.000199805
-4.91262e-05
0.000992541
-0.000214274
-4.95173e-05
0.000986846
-0.000228549
-4.99456e-05
0.000980574
-0.000242641
-5.04151e-05
0.000973742
-0.000256577
-5.09319e-05
0.000966376
-0.000270409
-5.15057e-05
0.000958512
-0.000284238
-5.21517e-05
0.000950206
-0.000298232
-5.28942e-05
0.000941546
-0.000312673
-5.37715e-05
0.000932666
-0.000328018
-5.48446e-05
0.000923768
-0.000344979
-5.62075e-05
0.000915151
-0.000364603
-5.80012e-05
0.000907208
-0.000388296
-6.04237e-05
0.000900375
-0.000417608
-6.37226e-05
0.000894888
-0.000453364
-6.81225e-05
0.000890108
-0.000493248
-7.35981e-05
0.000882899
-0.000526227
-7.94804e-05
0.000864323
-0.00052145
-8.34336e-05
0.000813627
-0.000404802
-7.64988e-05
0.000684678
-3.80919e-05
0.000369354
-1.56467e-05
-6.24898e-05
0.00101354
-3.13243e-05
-6.2528e-05
0.00101525
-4.70219e-05
-6.26041e-05
0.00101631
-6.27174e-05
-6.27174e-05
0.00101673
-7.83868e-05
-6.28681e-05
0.00101649
-9.40064e-05
-6.30565e-05
0.00101559
-0.000109552
-6.32826e-05
0.00101405
-0.000125002
-6.35468e-05
0.00101186
-0.000140334
-6.38496e-05
0.00100903
-0.000155528
-6.41914e-05
0.00100557
-0.000170565
-6.45731e-05
0.00100147
-0.000185429
-6.4996e-05
0.000996746
-0.000200109
-6.54616e-05
0.000991408
-0.000214597
-6.59725e-05
0.000985465
-0.000228892
-6.65325e-05
0.00097893
-0.000243007
-6.71471e-05
0.000971823
-0.000256969
-6.78251e-05
0.000964171
-0.000270837
-6.85798e-05
0.000956011
-0.000284713
-6.94324e-05
0.000947403
-0.000298773
-7.04167e-05
0.000938437
-0.00031331
-7.15858e-05
0.000929251
-0.00032879
-7.30235e-05
0.000920053
-0.000345938
-7.48586e-05
0.000911141
-0.00036581
-7.72817e-05
0.000902907
-0.000389801
-8.05578e-05
0.000895768
-0.00041941
-8.50118e-05
0.000889913
-0.000455348
-9.0926e-05
0.000884622
-0.000495095
-9.82391e-05
0.000876639
-0.000527366
-0.000106011
0.000856939
-0.000521127
-0.000111012
0.00080489
-0.000402898
-0.000101398
0.000675172
-5.05969e-05
0.000362611
-1.56872e-05
-7.81085e-05
0.00101357
-3.14033e-05
-7.81553e-05
0.0010152
-4.71376e-05
-7.82484e-05
0.00101618
-6.28681e-05
-7.83869e-05
0.00101649
-7.85711e-05
-7.85711e-05
0.00101612
-9.42225e-05
-7.88013e-05
0.00101509
-0.000109799
-7.90777e-05
0.00101339
-0.000125277
-7.94006e-05
0.00101102
-0.000140637
-7.97708e-05
0.001008
-0.000155856
-8.01888e-05
0.00100432
-0.000170919
-8.06558e-05
0.000999993
-0.000185808
-8.11734e-05
0.000995027
-0.000200511
-8.17437e-05
0.000989429
-0.000215023
-8.23703e-05
0.000983212
-0.000229344
-8.30579e-05
0.000976389
-0.000243488
-8.38141e-05
0.000968981
-0.000257485
-8.46502e-05
0.000961016
-0.000271398
-8.55842e-05
0.000952535
-0.000285335
-8.6644e-05
0.0009436
-0.000299481
-8.78737e-05
0.000934306
-0.00031414
-8.93428e-05
0.000924795
-0.000329794
-9.11593e-05
0.000915281
-0.000347181
-9.3488e-05
0.000906063
-0.000367366
-9.65696e-05
0.000897527
-0.000391729
-0.000100733
0.000890065
-0.000421708
-0.000106372
0.000883813
-0.00045787
-0.000113809
0.000877949
-0.000497447
-0.000122913
0.000869082
-0.000528848
-0.000132435
0.00084809
-0.000520884
-0.000138245
0.000794489
-0.000400847
-0.000125689
0.000663959
-6.24727e-05
0.000354763
-1.57379e-05
-9.36795e-05
0.00101299
-3.15019e-05
-9.37346e-05
0.00101454
-4.72821e-05
-9.38438e-05
0.00101541
-6.30564e-05
-9.40064e-05
0.00101559
-7.88012e-05
-9.42225e-05
0.00101509
-9.44925e-05
-9.44925e-05
0.00101389
-0.000110107
-9.48167e-05
0.00101201
-0.000125621
-9.51958e-05
0.00100945
-0.000141015
-9.56302e-05
0.00100621
-0.000156267
-9.6121e-05
0.0010023
-0.00017136
-9.66697e-05
0.000997722
-0.00018628
-9.72782e-05
0.000992489
-0.000201013
-9.79495e-05
0.000986608
-0.000215556
-9.86878e-05
0.000980091
-0.000229909
-9.94995e-05
0.000972954
-0.000244089
-0.000100394
0.00096522
-0.000258131
-0.000101387
0.000956918
-0.0002721
-0.0001025
0.000948091
-0.000286115
-0.00010377
0.000938807
-0.000300369
-0.000105252
0.000929165
-0.000315182
-0.000107034
0.000919312
-0.000331052
-0.000109249
0.000909467
-0.000348735
-0.0001121
0.000899932
-0.000369301
-0.000115878
0.000891082
-0.00039411
-0.000120972
0.00088328
-0.000424523
-0.000127834
0.000876593
-0.000460931
-0.000136804
0.000870085
-0.000500274
-0.000147648
0.00086021
-0.000530611
-0.000158763
0.000837744
-0.000520616
-0.000165104
0.000782403
-0.000398509
-0.00014931
0.000651038
-7.37502e-05
0.000345815
-1.57987e-05
-0.000109179
0.00101181
-3.16204e-05
-0.000109242
0.00101326
-4.74556e-05
-0.000109367
0.00101401
-6.32826e-05
-0.000109552
0.00101405
-7.90776e-05
-0.000109799
0.00101339
-9.48168e-05
-0.000110107
0.00101201
-0.000110477
-0.000110476
0.00100993
-0.000126034
-0.000110909
0.00100715
-0.000141469
-0.000111405
0.00100368
-0.000156761
-0.000111965
0.00099951
-0.000171892
-0.000112592
0.000994661
-0.000186847
-0.000113288
0.000989136
-0.000201617
-0.000114056
0.000982947
-0.000216197
-0.000114903
0.000976107
-0.00023059
-0.000115836
0.000968632
-0.000244816
-0.000116868
0.000960547
-0.000258912
-0.000118017
0.000951884
-0.000272953
-0.000119312
0.00094269
-0.000287065
-0.000120797
0.000933035
-0.000301455
-0.000122543
0.000923026
-0.000316458
-0.000124655
0.000912816
-0.000332593
-0.000127297
0.000902629
-0.000350632
-0.000130708
0.000892767
-0.000371651
-0.000135229
0.000883592
-0.000396979
-0.000141304
0.000875427
-0.000427879
-0.000149432
0.000868262
-0.000464537
-0.000159947
0.000861023
-0.000503555
-0.000172469
0.00085
-0.000532605
-0.000184996
0.000825873
-0.000520252
-0.000191544
0.00076861
-0.000395826
-0.00017218
0.000636417
-8.44184e-05
0.000335794
-1.58698e-05
-0.000124584
0.00101003
-3.17587e-05
-0.000124655
0.00101136
-4.76583e-05
-0.000124795
0.00101198
-6.35468e-05
-0.000125002
0.00101186
-7.94007e-05
-0.000125277
0.00101102
-9.51958e-05
-0.000125621
0.00100945
-0.000110909
-0.000126034
0.00100715
-0.000126517
-0.000126517
0.00100413
-0.000142
-0.000127071
0.0010004
-0.000157338
-0.000127698
0.000995958
-0.000172514
-0.0001284
0.000990813
-0.000187513
-0.00012918
0.000984975
-0.000202326
-0.000130043
0.000978455
-0.00021695
-0.000130996
0.000971267
-0.000231393
-0.000132049
0.000963431
-0.000245674
-0.000133217
0.000954972
-0.000259839
-0.000134524
0.000945925
-0.00027397
-0.000136006
0.000936343
-0.000288202
-0.000137717
0.0009263
-0.000302759
-0.000139743
0.000915909
-0.000317995
-0.000142211
0.00090533
-0.00033445
-0.000145314
0.000894791
-0.000352913
-0.000149332
0.000884592
-0.000374459
-0.000154653
0.000875078
-0.000400377
-0.00016177
0.000866525
-0.000431809
-0.000171211
0.000858825
-0.000468698
-0.000183274
0.000850757
-0.000507269
-0.000197396
0.000838432
-0.000534782
-0.00021112
0.000812447
-0.000519732
-0.000217504
0.000753093
-0.000392751
-0.000194207
0.000620111
-9.44368e-05
0.000324737
-1.59513e-05
-0.000139874
0.00100765
-3.19172e-05
-0.000139951
0.00100886
-4.78905e-05
-0.000140105
0.00100932
-6.38496e-05
-0.000140333
0.00100903
-7.97708e-05
-0.000140636
0.001008
-9.56304e-05
-0.000141014
0.00100621
-0.000111405
-0.000141468
0.00100368
-0.000127072
-0.000142
0.0010004
-0.00014261
-0.00014261
0.00099639
-0.000158002
-0.000143301
0.000991649
-0.000173229
-0.000144075
0.000986186
-0.000188279
-0.000144937
0.000980012
-0.000203144
-0.000145892
0.000973138
-0.000217822
-0.000146949
0.000965581
-0.000232323
-0.000148121
0.000957361
-0.000246673
-0.000149428
0.000948506
-0.000260924
-0.000150898
0.000939056
-0.000275165
-0.000152576
0.000929067
-0.000289547
-0.000154528
0.000918621
-0.00030431
-0.000156856
0.000907835
-0.000319828
-0.000159712
0.000896878
-0.000336666
-0.000163322
0.00088598
-0.000355626
-0.000168005
0.000875437
-0.000377777
-0.000174193
0.000865568
-0.000404352
-0.00018242
0.000856591
-0.000436348
-0.000193221
0.00084829
-0.000473427
-0.000206826
0.000839277
-0.000511398
-0.000222438
0.00082548
-0.000537093
-0.000237103
0.000797436
-0.000518993
-0.000242903
0.000735836
-0.000389241
-0.000215282
0.000602142
-0.000103751
0.000312692
-1.60434e-05
-0.000155026
0.00100469
-3.20961e-05
-0.000155111
0.00100574
-4.81527e-05
-0.000155279
0.00100604
-6.41915e-05
-0.000155527
0.00100557
-8.01889e-05
-0.000155856
0.00100432
-9.61213e-05
-0.000156266
0.0010023
-0.000111965
-0.00015676
0.00099951
-0.000127699
-0.000157337
0.000995958
-0.000143301
-0.000158001
0.000991649
-0.000158754
-0.000158753
0.000986589
-0.000174041
-0.000159597
0.000980788
-0.00018915
-0.000160539
0.000974256
-0.000204076
-0.000161585
0.000967008
-0.000218818
-0.000162747
0.00095906
-0.000233391
-0.000164041
0.000950435
-0.000247826
-0.000165491
0.000941166
-0.000262182
-0.000167133
0.000931294
-0.000276561
-0.00016902
0.000920883
-0.000291128
-0.000171234
0.00091002
-0.000306142
-0.000173897
0.000898831
-0.000322002
-0.000177185
0.00088749
-0.000339293
-0.000181358
0.000876229
-0.00035883
-0.000186774
0.000865333
-0.000381667
-0.000193906
0.000855089
-0.000408961
-0.000203313
0.000845644
-0.000441535
-0.000215516
0.000836659
-0.000478733
-0.000230637
0.000826567
-0.000515916
-0.000247598
0.000811113
-0.000539479
-0.000262896
0.000780804
-0.000517967
-0.000267638
0.000716828
-0.000385253
-0.000235285
0.000582544
-0.000112301
0.000299713
-1.61462e-05
-0.000170023
0.00100113
-3.22959e-05
-0.000170115
0.00100203
-4.84454e-05
-0.000170297
0.00100215
-6.45732e-05
-0.000170564
0.00100147
-8.0656e-05
-0.000170918
0.000999993
-9.66699e-05
-0.00017136
0.000997722
-0.000112592
-0.000171891
0.000994661
-0.000128401
-0.000172513
0.000990813
-0.000144075
-0.000173228
0.000986186
-0.000159598
-0.00017404
0.000980788
-0.000174954
-0.000174953
0.000974628
-0.000190133
-0.000175974
0.000967719
-0.00020513
-0.000177113
0.000960075
-0.000219949
-0.000178382
0.000951717
-0.00023461
-0.000179802
0.000942669
-0.00024915
-0.000181404
0.000932968
-0.000263637
-0.000183231
0.000922661
-0.000278187
-0.000185349
0.000911816
-0.000292981
-0.000187856
0.000900529
-0.000308303
-0.000190893
0.000888931
-0.000324573
-0.000194668
0.000877203
-0.000342396
-0.000199473
0.000865574
-0.000362597
-0.000205703
0.000854314
-0.0003862
-0.000213863
0.000843669
-0.000414266
-0.000224522
0.0008337
-0.00044741
-0.000238157
0.00082393
-0.000484624
-0.00025474
0.000812604
-0.000520785
-0.00027286
0.000795291
-0.000541869
-0.000288427
0.000762514
-0.000516575
-0.000291587
0.000696055
-0.000380741
-0.000254083
0.000561355
-0.000120024
0.000285866
-1.62601e-05
-0.000184849
0.000996996
-3.25172e-05
-0.000184948
0.000997721
-4.87696e-05
-0.000185143
0.000997644
-6.49961e-05
-0.000185428
0.000996746
-8.11736e-05
-0.000185807
0.000995027
-9.72785e-05
-0.000186279
0.000992489
-0.000113288
-0.000186846
0.000989136
-0.000129181
-0.000187512
0.000984975
-0.000144937
-0.000188278
0.000980012
-0.00016054
-0.000189149
0.000974256
-0.000175975
-0.000190132
0.000967719
-0.000191235
-0.000191233
0.000960413
-0.000206317
-0.000192467
0.000952356
-0.000221229
-0.000193849
0.00094357
-0.000235997
-0.000195406
0.000934084
-0.000250667
-0.000197174
0.000923937
-0.000265318
-0.000199207
0.000913183
-0.00028008
-0.000201585
0.000901898
-0.000295156
-0.000204424
0.000890181
-0.00031085
-0.000207891
0.000878174
-0.000327609
-0.00021222
0.000866058
-0.000346055
-0.000217738
0.000854058
-0.000367011
-0.000224873
0.000842419
-0.000391457
-0.00023415
0.000831335
-0.000420333
-0.000246128
0.000820769
-0.000454011
-0.000261205
0.000810092
-0.000491094
-0.000279156
0.000797354
-0.000525957
-0.000298192
0.000777966
-0.000544178
-0.000313598
0.000742521
-0.000514726
-0.0003146
0.000673511
-0.000375655
-0.000271527
0.000538624
-0.000126855
0.000271225
-1.63856e-05
-0.000199489
0.000992288
-3.27606e-05
-0.000199596
0.000992827
-4.91263e-05
-0.000199804
0.00099254
-6.54618e-05
-0.000200108
0.000991408
-8.1744e-05
-0.00020051
0.000989429
-9.79498e-05
-0.000201012
0.000986608
-0.000114057
-0.000201616
0.000982947
-0.000130044
-0.000202325
0.000978455
-0.000145892
-0.000203143
0.000973138
-0.000161586
-0.000204075
0.000967008
-0.000177114
-0.000205128
0.000960075
-0.000192468
-0.000206315
0.000952356
-0.000207652
-0.00020765
0.00094387
-0.000222678
-0.000209156
0.000934641
-0.000237579
-0.000210863
0.000924704
-0.00025241
-0.000212819
0.000914102
-0.000267265
-0.000215089
0.000902896
-0.000282292
-0.000217768
0.000891165
-0.000297714
-0.000220993
0.000879021
-0.00031386
-0.000224955
0.000866605
-0.000331198
-0.000229921
0.000854102
-0.000350365
-0.000236246
0.000841724
-0.000372171
-0.000244386
0.000829685
-0.00039753
-0.00025487
0.000818111
-0.000427233
-0.000268219
0.000806855
-0.000461371
-0.000284717
0.000795122
-0.000498125
-0.000303895
0.000780771
-0.000531359
-0.000323534
0.000759078
-0.000546296
-0.00033828
0.000720779
-0.000512314
-0.000336499
0.000649191
-0.000369939
-0.000287457
0.000514412
-0.000132731
0.000255869
-1.65232e-05
-0.000213935
0.000987016
-3.30275e-05
-0.000214051
0.000987355
-4.95175e-05
-0.000214273
0.000986846
-6.59728e-05
-0.000214595
0.000985465
-8.23706e-05
-0.000215022
0.000983212
-9.86882e-05
-0.000215554
0.000980091
-0.000114904
-0.000216195
0.000976107
-0.000130997
-0.000216949
0.000971267
-0.00014695
-0.00021782
0.000965581
-0.000162748
-0.000218817
0.00095906
-0.000178383
-0.000219948
0.000951717
-0.00019385
-0.000221228
0.00094357
-0.000209157
-0.000222676
0.000934641
-0.000224324
-0.000224322
0.00092496
-0.00023939
-0.000226204
0.000914563
-0.000254424
-0.000228378
0.000903501
-0.000269535
-0.000230926
0.00089184
-0.00028489
-0.00023396
0.000879667
-0.000300736
-0.000237638
0.000867098
-0.000317425
-0.00024218
0.00085428
-0.000335445
-0.000247879
0.00084139
-0.000355439
-0.000255119
0.000828623
-0.000378186
-0.000264366
0.000816148
-0.000404515
-0.000276139
0.000804014
-0.00043503
-0.000290888
0.000791947
-0.000469509
-0.000308741
0.000778982
-0.000505679
-0.000328936
0.000762791
-0.000536894
-0.00034879
0.000738557
-0.00054809
-0.000362302
0.000697235
-0.000509215
-0.000357078
0.000623096
-0.000363529
-0.000301695
0.000488788
-0.000137589
0.000239889
-1.66739e-05
-0.000228186
0.000981194
-3.33195e-05
-0.000228311
0.000981319
-4.99458e-05
-0.000228548
0.000980574
-6.65328e-05
-0.000228891
0.00097893
-8.30583e-05
-0.000229343
0.000976389
-9.95e-05
-0.000229908
0.000972954
-0.000115837
-0.000230589
0.000968632
-0.00013205
-0.000231391
0.000963431
-0.000148122
-0.000232321
0.000957361
-0.000164042
-0.000233389
0.000950435
-0.000179804
-0.000234608
0.000942669
-0.000195407
-0.000235995
0.000934084
-0.000210865
-0.000237577
0.000924704
-0.000226206
-0.000239387
0.000914563
-0.00024148
-0.000241477
0.000903704
-0.00025677
-0.000243915
0.000892182
-0.000272201
-0.000246796
0.00088007
-0.000287964
-0.000250255
0.000867461
-0.000304326
-0.000254472
0.000854476
-0.000321665
-0.000259693
0.00084126
-0.000340481
-0.000266236
0.000827979
-0.000361408
-0.000274502
0.0008148
-0.000385182
-0.000284958
0.000801838
-0.000412512
-0.000298082
0.000789048
-0.000443782
-0.000314222
0.000776019
-0.000478422
-0.000333304
0.000761611
-0.000513684
-0.000354228
0.000743331
-0.000542431
-0.000373817
0.000716317
-0.000549399
-0.000385447
0.000671834
-0.000505285
-0.000376088
0.000595235
-0.000356356
-0.00031405
0.000461837
-0.000141366
0.000223385
-1.68391e-05
-0.000242249
0.000974837
-3.36394e-05
-0.000242385
0.000974736
-5.04153e-05
-0.000242639
0.000973742
-6.71475e-05
-0.000243005
0.000971823
-8.38145e-05
-0.000243486
0.000968981
-0.000100395
-0.000244087
0.00096522
-0.000116869
-0.000244814
0.000960547
-0.000133218
-0.000245672
0.000954972
-0.000149429
-0.000246671
0.000948506
-0.000165492
-0.000247824
0.000941166
-0.000181405
-0.000249147
0.000932968
-0.000197175
-0.000250665
0.000923937
-0.000212821
-0.000252408
0.000914102
-0.000228381
-0.000254421
0.000903501
-0.000243918
-0.000256766
0.000892182
-0.00025953
-0.000259526
0.000880206
-0.000275364
-0.000262815
0.000867652
-0.000291629
-0.000266787
0.000854619
-0.000308618
-0.000271647
0.000841226
-0.000326724
-0.000277661
0.000827613
-0.000346455
-0.000285168
0.000813928
-0.000368422
-0.000294573
0.000800299
-0.000393288
-0.000306323
0.000786772
-0.000421614
-0.000320827
0.000773197
-0.000453528
-0.000338292
0.000759017
-0.000488076
-0.000358396
0.000742924
-0.000522029
-0.000379664
0.000722286
-0.000547795
-0.000398413
0.000692258
-0.000550022
-0.000407442
0.00064452
-0.00050036
-0.000393248
0.000565628
-0.000348342
-0.000324313
0.000433659
-0.000144001
0.000206464
-1.70209e-05
-0.000256149
0.000967969
-3.39912e-05
-0.0002563
0.000967629
-5.09321e-05
-0.000256574
0.000966376
-6.78254e-05
-0.000256967
0.00096417
-8.46507e-05
-0.000257483
0.000961016
-0.000101388
-0.000258129
0.000956917
-0.000118018
-0.00025891
0.000951883
-0.000134525
-0.000259837
0.000945925
-0.000150899
-0.000260922
0.000939056
-0.000167134
-0.00026218
0.000931294
-0.000183233
-0.000263635
0.000922661
-0.000199208
-0.000265315
0.000913183
-0.000215091
-0.000267263
0.000902895
-0.000230929
-0.000269532
0.00089184
-0.0002468
-0.000272198
0.00088007
-0.00026282
-0.00027536
0.000867652
-0.000279155
-0.00027915
0.000854671
-0.000296037
-0.000283743
0.000841224
-0.000313777
-0.000289365
0.00082743
-0.00033278
-0.000296299
0.000813414
-0.000353546
-0.000304891
0.000799295
-0.000376644
-0.000315535
0.000785152
-0.000402636
-0.000328632
0.000770948
-0.0004319
-0.000344489
0.000756417
-0.000464272
-0.000363132
0.000740856
-0.00049839
-0.000383951
0.000722801
-0.000530547
-0.000405067
0.000699522
-0.000552757
-0.0004223
0.000666267
-0.000549717
-0.000427944
0.000615238
-0.000494248
-0.000408224
0.000534311
-0.000339401
-0.000332259
0.000404373
-0.000145438
0.000189246
-1.72226e-05
-0.000269936
0.000960626
-3.43811e-05
-0.000270105
0.000960035
-5.15059e-05
-0.000270407
0.000958512
-6.85802e-05
-0.000270834
0.000956011
-8.55848e-05
-0.000271395
0.000952535
-0.000102501
-0.000272098
0.000948091
-0.000119313
-0.000272951
0.000942689
-0.000136007
-0.000273967
0.000936343
-0.000152577
-0.000275162
0.000929067
-0.000169022
-0.000276558
0.000920883
-0.000185351
-0.000278184
0.000911816
-0.000201587
-0.000280077
0.000901897
-0.00021777
-0.000282289
0.000891165
-0.000233963
-0.000284887
0.000879667
-0.000250258
-0.00028796
0.000867461
-0.000266792
-0.000291625
0.000854619
-0.000283749
-0.000296031
0.000841224
-0.000301379
-0.000301373
0.000827374
-0.000320008
-0.000307889
0.000813176
-0.00034004
-0.000315873
0.000798733
-0.00036195
-0.00032566
0.000784125
-0.00038624
-0.000337612
0.000769367
-0.000413342
-0.000352052
0.00075433
-0.000443413
-0.000369153
0.000738626
-0.000475966
-0.00038872
0.000721408
-0.000509216
-0.000409822
0.000701084
-0.000539001
-0.000430165
0.000674879
-0.000557024
-0.000445101
0.00063822
-0.000548192
-0.000446534
0.00058394
-0.000486732
-0.000420643
0.000501338
-0.000329442
-0.000337649
0.000374119
-0.000145619
0.000171858
-1.74489e-05
-0.000283702
0.000952859
-3.48191e-05
-0.000283897
0.000952007
-5.2152e-05
-0.000284235
0.000950206
-6.94329e-05
-0.00028471
0.000947403
-8.66446e-05
-0.000285332
0.0009436
-0.000103771
-0.000286112
0.000938807
-0.000120798
-0.000287062
0.000933035
-0.000137719
-0.000288199
0.0009263
-0.000154529
-0.000289544
0.00091862
-0.000171236
-0.000291125
0.00091002
-0.000187858
-0.000292978
0.000900529
-0.000204426
-0.000295153
0.000890181
-0.000220995
-0.00029771
0.00087902
-0.000237641
-0.000300732
0.000867098
-0.000254476
-0.000304322
0.000854476
-0.000271652
-0.000308613
0.000841226
-0.000289371
-0.000313771
0.00082743
-0.000307896
-0.000320001
0.000813176
-0.000327557
-0.000327549
0.000798552
-0.00034874
-0.000336698
0.00078363
-0.000371876
-0.000347759
0.000768438
-0.000397369
-0.000361026
0.000752915
-0.000425487
-0.00037672
0.000736834
-0.000456137
-0.000394837
0.000719682
-0.00048848
-0.000414935
0.000700489
-0.000520313
-0.000435741
0.000677567
-0.000547058
-0.000454554
0.000648165
-0.000560219
-0.000466325
0.000607982
-0.000545099
-0.000462699
0.000550591
-0.000477561
-0.000430067
0.000466788
-0.000318361
-0.000340228
0.000343062
-0.000144495
0.000154442
-1.77077e-05
-0.000297609
0.000944751
-3.53206e-05
-0.00029784
0.000943629
-5.28945e-05
-0.000298229
0.000941546
-7.04172e-05
-0.00029877
0.000938436
-8.78744e-05
-0.000299478
0.000934306
-0.000105253
-0.000300366
0.000929164
-0.000122544
-0.000301452
0.000923026
-0.000139744
-0.000302756
0.000915908
-0.000156857
-0.000304306
0.000907834
-0.000173898
-0.000306139
0.000898831
-0.000190895
-0.000308299
0.000888931
-0.000207893
-0.000310847
0.000878174
-0.000224958
-0.000313856
0.000866605
-0.000242183
-0.000317421
0.00085428
-0.000259697
-0.00032166
0.000841259
-0.000277666
-0.000326719
0.000827613
-0.000296306
-0.000332774
0.000813414
-0.000315881
-0.000340033
0.000798733
-0.000336707
-0.000348732
0.00078363
-0.000359139
-0.000359129
0.000768132
-0.000383526
-0.000371474
0.000752207
-0.000410154
-0.000385976
0.000735707
-0.000439088
-0.000402702
0.000718305
-0.00046996
-0.000421458
0.000699376
-0.00050157
-0.000441517
0.000677847
-0.000531312
-0.00046128
0.000651993
-0.000554266
-0.000477671
0.000619159
-0.000561869
-0.000485333
0.000575418
-0.00054002
-0.000475824
0.000515175
-0.000466459
-0.000436022
0.000430775
-0.00030605
-0.000339726
0.000311392
-0.000142019
0.000137144
-1.8011e-05
-0.000311926
0.000936432
-3.59105e-05
-0.000312208
0.000935033
-5.37718e-05
-0.00031267
0.000932665
-7.15863e-05
-0.000313307
0.00092925
-8.93434e-05
-0.000314137
0.000924795
-0.000107035
-0.000315179
0.000919312
-0.000124656
-0.000316454
0.000912816
-0.000142212
-0.000317992
0.00090533
-0.000159714
-0.000319825
0.000896877
-0.000177187
-0.000321999
0.00088749
-0.000194671
-0.000324569
0.000877203
-0.000212223
-0.000327605
0.000866058
-0.000229924
-0.000331193
0.000854102
-0.000247883
-0.000335441
0.00084139
-0.000266241
-0.000340475
0.000827979
-0.000285174
-0.000346449
0.000813928
-0.000304899
-0.000353539
0.000799296
-0.00032567
-0.000361941
0.000784126
-0.000347769
-0.000371865
0.000768438
-0.000371485
-0.000383514
0.000752207
-0.000397071
-0.000397057
0.000735326
-0.00042464
-0.000412566
0.000717564
-0.000454049
-0.000429945
0.000698494
-0.000484624
-0.000448754
0.0006774
-0.000514822
-0.000468011
0.000653152
-0.000541677
-0.000485794
0.000624047
-0.000560022
-0.000498742
0.000587615
-0.000561383
-0.000501315
0.000540396
-0.000532471
-0.000485178
0.000477708
-0.000453106
-0.000437956
0.00039345
-0.000292394
-0.000335869
0.000279334
-0.00013815
0.000120126
-1.83775e-05
-0.000327097
0.000928098
-3.6628e-05
-0.00032745
0.000926419
-5.48449e-05
-0.000328015
0.000923768
-7.3024e-05
-0.000328787
0.000920052
-9.116e-05
-0.000329791
0.000915281
-0.00010925
-0.000331049
0.000909467
-0.000127298
-0.00033259
0.000902629
-0.000145315
-0.000334446
0.000894791
-0.000163324
-0.000336662
0.00088598
-0.00018136
-0.000339289
0.000876229
-0.000199475
-0.000342392
0.000865574
-0.000217741
-0.000346051
0.000854058
-0.00023625
-0.00035036
0.000841724
-0.000255123
-0.000355434
0.000828623
-0.000274507
-0.000361402
0.0008148
-0.00029458
-0.000368415
0.000800299
-0.000315544
-0.000376635
0.000785152
-0.000337623
-0.000386229
0.000769367
-0.00036104
-0.000397355
0.000752915
-0.00038599
-0.000410138
0.000735708
-0.000412582
-0.000424624
0.000717564
-0.000440753
-0.000440734
0.000698169
-0.000470098
-0.000458153
0.000677016
-0.000499671
-0.000476222
0.000653331
-0.0005276
-0.000493673
0.000625981
-0.000550652
-0.000508366
0.000593358
-0.000563532
-0.000516742
0.000553269
-0.000558031
-0.000513257
0.000502806
-0.000521872
-0.000489893
0.000438249
-0.000437159
-0.000435285
0.000355014
-0.000277267
-0.000328367
0.000247145
-0.000132855
0.000103555
-1.8836e-05
-0.00034382
0.000920042
-3.75339e-05
-0.000344268
0.000918081
-5.62078e-05
-0.000344975
0.00091515
-7.4859e-05
-0.000345935
0.000911141
-9.34887e-05
-0.000347178
0.000906063
-0.000112101
-0.000348732
0.000899932
-0.000130709
-0.000350629
0.000892767
-0.000149333
-0.000352909
0.000884592
-0.000168007
-0.000355622
0.000875437
-0.000186776
-0.000358826
0.000865333
-0.000205706
-0.000362593
0.000854314
-0.000224876
-0.000367007
0.000842419
-0.00024439
-0.000372165
0.000829685
-0.000264371
-0.000378181
0.000816148
-0.000284964
-0.000385175
0.000801838
-0.00030633
-0.00039328
0.000786773
-0.000328642
-0.000402626
0.000770949
-0.000352065
-0.000413328
0.000754331
-0.000376736
-0.00042547
0.000736834
-0.000402722
-0.000439068
0.000718306
-0.000429964
-0.000454026
0.000698494
-0.000458174
-0.000470075
0.000677016
-0.000486715
-0.000486691
0.000653314
-0.000514349
-0.000502956
0.000626602
-0.000538985
-0.00051741
0.000595807
-0.000557203
-0.000527723
0.000559502
-0.000563767
-0.000530345
0.000515853
-0.000550913
-0.000519912
0.000462572
-0.000507565
-0.000488961
0.000396916
-0.000418225
-0.000427339
0.000315726
-0.000260547
-0.000316947
0.000215121
-0.000126113
8.76071e-05
-1.94292e-05
-0.000363139
0.000912659
-3.87195e-05
-0.000363707
0.000910417
-5.80015e-05
-0.000364599
0.000907207
-7.72821e-05
-0.000365807
0.000902907
-9.65702e-05
-0.000367363
0.000897527
-0.000115879
-0.000369297
0.000891082
-0.00013523
-0.000371647
0.000883591
-0.000154654
-0.000374455
0.000875078
-0.000174195
-0.000377773
0.000865568
-0.000193908
-0.000381662
0.000855089
-0.000213866
-0.000386195
0.000843669
-0.000234154
-0.000391452
0.000831335
-0.000254874
-0.000397525
0.000818111
-0.000276143
-0.000404509
0.000804014
-0.000298087
-0.000412505
0.000789048
-0.000320834
-0.000421605
0.000773197
-0.000344499
-0.000431889
0.000756418
-0.000369166
-0.000443398
0.000738626
-0.000394856
-0.000456117
0.000719683
-0.000421479
-0.000469934
0.000699376
-0.00044878
-0.000484595
0.0006774
-0.000476246
-0.000499639
0.000653332
-0.000502982
-0.000514321
0.000626603
-0.00052755
-0.000527522
0.000596472
-0.000547678
-0.000537591
0.000561997
-0.000559976
-0.000542186
0.000522011
-0.000559422
-0.000537878
0.000475114
-0.000538929
-0.000519781
0.000419678
-0.00048876
-0.000481205
0.000353903
-0.000395895
-0.000413411
0.000275915
-0.000242105
-0.000301316
0.000183599
-0.000117915
7.24629e-05
-2.0216e-05
-0.000386484
0.000906403
-4.0314e-05
-0.000387181
0.000903877
-6.04239e-05
-0.000388293
0.000900374
-8.05581e-05
-0.000389798
0.000895767
-0.000100734
-0.000391725
0.000890065
-0.000120973
-0.000394107
0.00088328
-0.000141305
-0.000396976
0.000875427
-0.000161772
-0.000400373
0.000866524
-0.000182421
-0.000404349
0.000856591
-0.000203315
-0.000408957
0.000845644
-0.000224525
-0.000414262
0.0008337
-0.000246131
-0.000420329
0.00082077
-0.000268223
-0.000427227
0.000806855
-0.000290893
-0.000435024
0.000791948
-0.000314228
-0.000443775
0.000776019
-0.000338298
-0.000453519
0.000759018
-0.000363141
-0.00046426
0.000740857
-0.000388732
-0.00047595
0.000721409
-0.000414952
-0.00048846
0.00070049
-0.000441542
-0.000501543
0.000677848
-0.000468039
-0.000514789
0.000653153
-0.000493707
-0.000527564