/*--------------------------------*- C++ -*----------------------------------*\
  =========                 |
  \\      /  F ield         | OpenFOAM: The Open Source CFD Toolbox
   \\    /   O peration     | Website:  https://openfoam.org
    \\  /    A nd           | Version:  11
     \\/     M anipulation  |
\*---------------------------------------------------------------------------*/
FoamFile
{
    format      ascii;
    class       volVectorField;
    location    "131";
    object      U;
}
// * * * * * * * * * * * * * * * * * * * * * * * * * * * * * * * * * * * * * //

dimensions      [0 1 -1 0 0 0 0];

internalField   nonuniform List<vector> 
65536
(
(-6.32403e-05 -7.74463e-09 1.00006)
(-0.000123534 5.97103e-05 1.00005)
(-0.00018098 0.000116397 1.00005)
(-0.000240855 0.00017531 1.00005)
(-0.000304699 0.000237921 1.00005)
(-0.000373761 0.00030545 1.00006)
(-0.000449417 0.000379232 1.00006)
(-0.000533233 0.000460804 1.00007)
(-0.000627087 0.000551979 1.00007)
(-0.00073326 0.000654977 1.00008)
(-0.00085457 0.000772525 1.00009)
(-0.000994559 0.000908053 1.0001)
(-0.00115778 0.00106595 1.00011)
(-0.0013502 0.001252 1.00012)
(-0.00157992 0.00147399 1.00014)
(-0.00185821 0.0017428 1.00016)
(-0.00220134 0.00207411 1.00018)
(-0.00263349 0.00249126 1.00021)
(-0.00319165 0.00303 1.00026)
(-0.00393359 0.00374625 1.00033)
(-0.00495067 0.00472861 1.00048)
(-0.00638748 0.00611765 1.00076)
(-0.00846998 0.00813349 1.00132)
(-0.0115404 0.0111104 1.00242)
(-0.0160884 0.015528 1.00451)
(-0.0227446 0.0220062 1.00838)
(-0.0321306 0.0311609 1.01505)
(-0.0443558 0.0431309 1.02512)
(-0.0583681 0.0569235 1.03584)
(-0.070951 0.0692426 1.03135)
(-0.0672957 0.0656684 0.946782)
(-0.0171754 0.0181548 0.568435)
(-0.000123542 -5.97344e-05 1.00005)
(-0.000185087 1.11374e-08 1.00004)
(-0.000243906 5.63333e-05 1.00004)
(-0.000305498 0.000114631 1.00004)
(-0.000371469 0.000176347 1.00004)
(-0.000443099 0.000242668 1.00005)
(-0.000521812 0.000314893 1.00005)
(-0.000609248 0.000394534 1.00006)
(-0.000707387 0.000483377 1.00006)
(-0.000818624 0.000583595 1.00007)
(-0.000945925 0.000697872 1.00008)
(-0.00109301 0.000829561 1.00009)
(-0.00126469 0.000982968 1.0001)
(-0.00146726 0.00116375 1.00011)
(-0.00170931 0.00137957 1.00013)
(-0.00200279 0.00164111 1.00014)
(-0.00236497 0.00196378 1.00017)
(-0.00282152 0.00237051 1.0002)
(-0.00341165 0.00289645 1.00024)
(-0.00419651 0.00359653 1.00032)
(-0.0052724 0.00455767 1.00047)
(-0.00679106 0.0059175 1.00076)
(-0.00898817 0.00789096 1.00133)
(-0.012218 0.0108033 1.00245)
(-0.0169827 0.0151194 1.00458)
(-0.0239202 0.0214349 1.0085)
(-0.0336322 0.0303259 1.01522)
(-0.0461765 0.0419084 1.02523)
(-0.0605061 0.0553026 1.0357)
(-0.0732043 0.0671706 1.03059)
(-0.0682077 0.0626886 0.944385)
(-0.0164781 0.0169097 0.564733)
(-0.000180992 -0.000116428 1.00005)
(-0.000243896 -5.63126e-05 1.00004)
(-0.000304192 8.58673e-09 1.00004)
(-0.000367583 5.80753e-05 1.00004)
(-0.000435717 0.000119356 1.00004)
(-0.0005099 0.000185004 1.00005)
(-0.000591618 0.000256319 1.00005)
(-0.000682579 0.000334791 1.00006)
(-0.000784842 0.000422182 1.00006)
(-0.000900913 0.000520648 1.00007)
(-0.00103388 0.000632827 1.00008)
(-0.00118766 0.000762044 1.00009)
(-0.00136728 0.000912557 1.0001)
(-0.00157941 0.00108997 1.00011)
(-0.00183307 0.00130187 1.00013)
(-0.00214095 0.00155885 1.00015)
(-0.00252136 0.0018762 1.00017)
(-0.00300157 0.00227667 1.0002)
(-0.00362326 0.00279504 1.00025)
(-0.00445128 0.00348564 1.00033)
(-0.00558754 0.00443417 1.00049)
(-0.00719186 0.00577581 1.0008)
(-0.00951101 0.00772071 1.0014)
(-0.0129132 0.010585 1.00256)
(-0.0179156 0.0148175 1.00477)
(-0.0251651 0.0209873 1.00879)
(-0.0352515 0.0296283 1.01561)
(-0.0481923 0.0408104 1.02565)
(-0.0628781 0.0536758 1.03589)
(-0.0755733 0.0650215 1.02994)
(-0.0696461 0.0602352 0.941889)
(-0.0172715 0.0153065 0.561039)
(-0.000240881 -0.000175348 1.00005)
(-0.000305489 -0.000114592 1.00004)
(-0.000367585 -5.80645e-05 1.00004)
(-0.000433104 9.57057e-10 1.00004)
(-0.000503732 6.10554e-05 1.00005)
(-0.000580846 0.000126256 1.00005)
(-0.000665973 0.000196884 1.00005)
(-0.000760917 0.000274418 1.00006)
(-0.000867822 0.000360615 1.00007)
(-0.000989303 0.000457588 1.00007)
(-0.00112862 0.000567964 1.00008)
(-0.00128987 0.000695029 1.00009)
(-0.00147838 0.00084301 1.0001)
(-0.0017012 0.00101747 1.00012)
(-0.00196794 0.00122596 1.00013)
(-0.00229212 0.00147902 1.00015)
(-0.00269331 0.00179188 1.00017)
(-0.00320075 0.00218721 1.00021)
(-0.00385902 0.00269963 1.00026)
(-0.00473742 0.00338312 1.00035)
(-0.00594434 0.00432251 1.00052)
(-0.00764884 0.00565111 1.00085)
(-0.01011 0.00757498 1.00149)
(-0.0137105 0.010402 1.00273)
(-0.0189814 0.0145652 1.00504)
(-0.0265749 0.0206076 1.0092)
(-0.0370607 0.0290232 1.01618)
(-0.0503969 0.0398375 1.02629)
(-0.0653619 0.0521818 1.03627)
(-0.0779727 0.062948 1.02927)
(-0.0712857 0.0579973 0.93907)
(-0.0179158 0.0143962 0.556975)
(-0.000304726 -0.000237968 1.00005)
(-0.000371453 -0.000176307 1.00004)
(-0.000435727 -0.000119337 1.00004)
(-0.000503741 -6.10637e-05 1.00005)
(-0.000577288 -8.94514e-09 1.00005)
(-0.000657783 6.49519e-05 1.00005)
(-0.000746847 0.00013511 1.00006)
(-0.000846352 0.000211931 1.00006)
(-0.000958549 0.00029715 1.00007)
(-0.0010862 0.000392884 1.00008)
(-0.00123272 0.000501718 1.00009)
(-0.00140248 0.000626924 1.0001)
(-0.00160111 0.000772704 1.00011)
(-0.00183615 0.000944606 1.00012)
(-0.00211791 0.00115016 1.00014)
(-0.00246092 0.00139992 1.00016)
(-0.00288633 0.00170912 1.00018)
(-0.00342567 0.00210048 1.00022)
(-0.00412706 0.00260866 1.00027)
(-0.00506501 0.00328752 1.00038)
(-0.00635544 0.00422148 1.00056)
(-0.00817775 0.00554241 1.00093)
(-0.0108042 0.00745286 1.00162)
(-0.0146325 0.0102529 1.00294)
(-0.0202055 0.01436 1.00539)
(-0.0281747 0.0202896 1.00974)
(-0.0390795 0.0284945 1.01692)
(-0.0527986 0.0389547 1.02713)
(-0.0679705 0.0507782 1.0368)
(-0.0803901 0.0609252 1.02852)
(-0.0729033 0.0558162 0.935764)
(-0.0183943 0.01371 0.552232)
(-0.000373805 -0.000305497 1.00006)
(-0.000443093 -0.000242593 1.00005)
(-0.000509907 -0.000184969 1.00005)
(-0.000580846 -0.000126243 1.00005)
(-0.000657774 -6.49645e-05 1.00005)
(-0.00074219 -9.68577e-10 1.00006)
(-0.000835778 6.99056e-05 1.00006)
(-0.000940511 0.000146235 1.00007)
(-0.00105876 0.000230723 1.00007)
(-0.00119343 0.000325459 1.00008)
(-0.00134818 0.000433033 1.00009)
(-0.00152764 0.000556691 1.0001)
(-0.00173785 0.000700631 1.00011)
(-0.00198693 0.000870403 1.00013)
(-0.00228604 0.00107356 1.00014)
(-0.00265095 0.00132071 1.00016)
(-0.00310469 0.00162721 1.00019)
(-0.0036816 0.00201592 1.00023)
(-0.00443399 0.00252175 1.00029)
(-0.00544243 0.00319874 1.00041)
(-0.00683143 0.0041312 1.00062)
(-0.00879192 0.00545002 1.00102)
(-0.0116103 0.00735455 1.00179)
(-0.0156985 0.0101371 1.00323)
(-0.021609 0.0141992 1.00584)
(-0.0299858 0.0200269 1.01042)
(-0.0413255 0.0280284 1.01784)
(-0.0554092 0.038135 1.02816)
(-0.0707144 0.049424 1.03742)
(-0.0828206 0.0589175 1.02761)
(-0.0744448 0.0536346 0.931883)
(-0.0188008 0.0130761 0.546736)
(-0.000449461 -0.00037929 1.00006)
(-0.000521756 -0.000314795 1.00005)
(-0.000591586 -0.000256246 1.00005)
(-0.000665933 -0.00019683 1.00005)
(-0.000746798 -0.000135071 1.00006)
(-0.000835746 -6.988e-05 1.00006)
(-0.000934549 2.70576e-08 1.00007)
(-0.00104529 7.60933e-05 1.00007)
(-0.00117046 0.000160072 1.00008)
(-0.00131318 0.000254059 1.00009)
(-0.00147734 0.00036064 1.0001)
(-0.00166793 0.000483052 1.00011)
(-0.00189148 0.000625511 1.00012)
(-0.00215681 0.000793588 1.00013)
(-0.00247612 0.000994898 1.00015)
(-0.00286671 0.00124016 1.00017)
(-0.00335388 0.00154493 1.0002)
(-0.00397533 0.00193239 1.00025)
(-0.00478831 0.00243783 1.00032)
(-0.00588043 0.00311574 1.00045)
(-0.00738592 0.0040506 1.0007)
(-0.00950827 0.00537259 1.00115)
(-0.0125485 0.00727805 1.00201)
(-0.0169323 0.0100513 1.00358)
(-0.0232176 0.0140769 1.00641)
(-0.0320331 0.0198094 1.01125)
(-0.0438187 0.0276093 1.01895)
(-0.05824 0.0373549 1.02937)
(-0.0735961 0.0480897 1.03812)
(-0.085256 0.0568981 1.02649)
(-0.0758891 0.0514304 0.927353)
(-0.0191598 0.0124621 0.540454)
(-0.000533276 -0.000460851 1.00007)
(-0.000609124 -0.00039437 1.00006)
(-0.000682473 -0.000334662 1.00006)
(-0.000760807 -0.000274304 1.00006)
(-0.000846251 -0.000211826 1.00006)
(-0.000940437 -0.000146136 1.00007)
(-0.00104524 -7.59968e-05 1.00007)
(-0.00116287 6.29462e-08 1.00008)
(-0.00129601 8.37718e-05 1.00009)
(-0.00144798 0.00017725 1.00009)
(-0.001623 0.000283083 1.0001)
(-0.00182645 0.000404545 1.00011)
(-0.00206549 0.000545857 1.00013)
(-0.00234982 0.000712668 1.00014)
(-0.00269288 0.000912679 1.00016)
(-0.00311387 0.00115679 1.00018)
(-0.00364081 0.00146084 1.00022)
(-0.00431545 0.00184845 1.00027)
(-0.0052008 0.00235548 1.00036)
(-0.0063926 0.00303706 1.00051)
(-0.00803591 0.00397808 1.0008)
(-0.0103477 0.00530815 1.00132)
(-0.0136438 0.00722048 1.00229)
(-0.0183622 0.00999096 1.00403)
(-0.0250615 0.0139857 1.0071)
(-0.034345 0.0196256 1.01226)
(-0.0465814 0.0272202 1.02027)
(-0.0613024 0.0365924 1.03076)
(-0.0766148 0.0467502 1.03887)
(-0.0876856 0.0548459 1.02509)
(-0.0772219 0.0491899 0.9221)
(-0.0194776 0.011857 0.53335)
(-0.000627119 -0.00055202 1.00007)
(-0.000707152 -0.000483134 1.00006)
(-0.00078465 -0.000421994 1.00006)
(-0.000867646 -0.000360434 1.00007)
(-0.0009584 -0.000296976 1.00007)
(-0.00105864 -0.000230547 1.00007)
(-0.00117037 -0.000159898 1.00008)
(-0.00129596 -8.35901e-05 1.00009)
(-0.0014383 1.09483e-07 1.00009)
(-0.00160099 9.33277e-05 1.0001)
(-0.0017886 0.000198673 1.00011)
(-0.00200707 0.000319436 1.00012)
(-0.00226429 0.000459931 1.00013)
(-0.00257104 0.00062587 1.00015)
(-0.00294233 0.000825115 1.00017)
(-0.00339966 0.0010688 1.0002)
(-0.00397436 0.00137314 1.00024)
(-0.00471297 0.00176231 1.0003)
(-0.00568527 0.0022729 1.0004)
(-0.00699618 0.00296084 1.00059)
(-0.00880275 0.00391155 1.00093)
(-0.0113362 0.00525407 1.00154)
(-0.0149268 0.00717822 1.00265)
(-0.0200219 0.00995056 1.0046)
(-0.0271751 0.0139173 1.00796)
(-0.036953 0.019463 1.01347)
(-0.0496366 0.0268439 1.02181)
(-0.0646063 0.0358258 1.03233)
(-0.0797662 0.0453831 1.03963)
(-0.0900945 0.0527439 1.02335)
(-0.0784296 0.046905 0.916041)
(-0.0197576 0.0112554 0.525391)
(-0.000733278 -0.000655002 1.00008)
(-0.000818298 -0.000583261 1.00007)
(-0.000900652 -0.000520391 1.00007)
(-0.000989081 -0.000457354 1.00007)
(-0.001086 -0.000392645 1.00008)
(-0.00119327 -0.000325217 1.00008)
(-0.00131304 -0.000253811 1.00009)
(-0.00144787 -0.000176993 1.00009)
(-0.00160091 -9.30323e-05 1.0001)
(-0.00177611 1.80835e-07 1.00011)
(-0.00197852 0.000105289 1.00012)
(-0.00221471 0.000225626 1.00013)
(-0.00249351 0.000365574 1.00014)
(-0.00282708 0.000531005 1.00016)
(-0.00323233 0.000729978 1.00018)
(-0.00373357 0.000973927 1.00022)
(-0.00436616 0.00127954 1.00026)
(-0.0051823 0.00167165 1.00034)
(-0.00625957 0.00218771 1.00047)
(-0.00771328 0.00288455 1.0007)
(-0.00971339 0.00384818 1.00111)
(-0.0125057 0.00520689 1.00183)
(-0.016434 0.00714658 1.0031)
(-0.0219513 0.00992342 1.00531)
(-0.0295979 0.0138618 1.009)
(-0.0398912 0.0193079 1.01492)
(-0.053007 0.0264622 1.02359)
(-0.0681586 0.0350339 1.03408)
(-0.0830403 0.0439675 1.04035)
(-0.0924632 0.0505782 1.02117)
(-0.0794971 0.0445719 0.909084)
(-0.0200009 0.0106552 0.516539)
(-0.000854581 -0.00077254 1.00009)
(-0.000945535 -0.000697443 1.00008)
(-0.00103358 -0.000632509 1.00008)
(-0.00112835 -0.000567673 1.00008)
(-0.00123249 -0.00050143 1.00009)
(-0.00134797 -0.000432736 1.00009)
(-0.00147714 -0.000360333 1.0001)
(-0.00162281 -0.000282768 1.0001)
(-0.00178845 -0.000198321 1.00011)
(-0.00197845 -0.000104857 1.00012)
(-0.00219842 2.52262e-07 1.00013)
(-0.0024558 0.000120396 1.00014)
(-0.00276061 0.000260078 1.00016)
(-0.00312664 0.00042531 1.00018)
(-0.00357325 0.000624424 1.0002)
(-0.00412818 0.00086925 1.00024)
(-0.00483158 0.00117705 1.0003)
(-0.00574235 0.00157339 1.0004)
(-0.00694698 0.00209668 1.00056)
(-0.00857224 0.00280474 1.00085)
(-0.0108018 0.00378405 1.00135)
(-0.0138959 0.00516188 1.00221)
(-0.0182095 0.00711946 1.00369)
(-0.0241963 0.00990121 1.00619)
(-0.0323739 0.0138078 1.01028)
(-0.0431951 0.0191447 1.01663)
(-0.0567138 0.0260558 1.02564)
(-0.0719611 0.0341952 1.03599)
(-0.0864209 0.042484 1.04097)
(-0.0947659 0.0483372 1.01846)
(-0.0804062 0.0421896 0.901124)
(-0.0202069 0.0100569 0.506758)
(-0.000994566 -0.00090806 1.0001)
(-0.00109257 -0.000829043 1.00009)
(-0.00118731 -0.000761659 1.00009)
(-0.00128956 -0.000694679 1.00009)
(-0.0014022 -0.00062658 1.0001)
(-0.00152737 -0.000556345 1.0001)
(-0.00166768 -0.000482702 1.00011)
(-0.00182622 -0.000404187 1.00011)
(-0.00200688 -0.000319055 1.00012)
(-0.00221459 -0.000225175 1.00013)
(-0.00245576 -0.000119871 1.00014)
(-0.00273885 2.99543e-07 1.00016)
(-0.00307541 0.000139886 1.00017)
(-0.00348135 0.00030517 1.0002)
(-0.00397905 0.000504747 1.00023)
(-0.00460032 0.000750944 1.00028)
(-0.00539112 0.00106165 1.00036)
(-0.00641808 0.00146335 1.00048)
(-0.00777775 0.00199542 1.0007)
(-0.00960933 0.00271663 1.00106)
(-0.0121105 0.00371381 1.00167)
(-0.015555 0.00511266 1.00271)
(-0.0203057 0.00708883 1.00445)
(-0.02681 0.00987346 1.0073)
(-0.0355508 0.0137415 1.01182)
(-0.0469009 0.018956 1.01865)
(-0.0607742 0.0256039 1.02796)
(-0.0760088 0.0332876 1.03804)
(-0.0898833 0.0409136 1.04143)
(-0.0969705 0.0460112 1.0151)
(-0.0811359 0.0397594 0.892043)
(-0.020374 0.00946155 0.496009)
(-0.00115778 -0.00106595 1.00011)
(-0.00126417 -0.000982353 1.0001)
(-0.00136687 -0.000912096 1.0001)
(-0.00147802 -0.000842591 1.0001)
(-0.00160077 -0.000772294 1.00011)
(-0.00173753 -0.000700222 1.00011)
(-0.00189118 -0.000625102 1.00012)
(-0.00206522 -0.000545451 1.00013)
(-0.00226406 -0.000459511 1.00013)
(-0.00249337 -0.0003651 1.00014)
(-0.0027605 -0.000259532 1.00016)
(-0.00307534 -0.00013928 1.00017)
(-0.00345134 3.57303e-07 1.00019)
(-0.00390709 0.000165779 1.00022)
(-0.00446858 0.000365995 1.00027)
(-0.00517272 0.000613817 1.00033)
(-0.0060722 0.000927952 1.00044)
(-0.00724251 0.00133577 1.0006)
(-0.0087913 0.00187777 1.00088)
(-0.0108708 0.00261355 1.00134)
(-0.0136926 0.00362996 1.00211)
(-0.0175417 0.00505053 1.00336)
(-0.022784 0.00704412 1.00541)
(-0.0298516 0.00982696 1.00867)
(-0.0391794 0.0136464 1.01369)
(-0.0510429 0.0187216 1.021)
(-0.0651995 0.0250837 1.03057)
(-0.0802874 0.0322887 1.04019)
(-0.0933932 0.0392387 1.04161)
(-0.0990375 0.043593 1.01094)
(-0.0816616 0.037284 0.881705)
(-0.0204994 0.00887075 0.484249)
(-0.00135019 -0.00125198 1.00012)
(-0.00146667 -0.00116303 1.00011)
(-0.00157892 -0.00108942 1.00011)
(-0.00170076 -0.00101697 1.00012)
(-0.00183575 -0.000944118 1.00012)
(-0.00198655 -0.000869917 1.00013)
(-0.00215645 -0.0007931 1.00013)
(-0.00234948 -0.00071218 1.00014)
(-0.00257075 -0.000625369 1.00015)
(-0.00282683 -0.000530483 1.00016)
(-0.00312641 -0.00042471 1.00018)
(-0.00348115 -0.000304501 1.0002)
(-0.00390692 -0.000164977 1.00022)
(-0.00442563 4.85433e-07 1.00026)
(-0.00506782 0.000201243 1.00032)
(-0.00587633 0.000450702 1.00041)
(-0.00691173 0.00076835 1.00055)
(-0.00825934 0.00118266 1.00078)
(-0.0100388 0.00173513 1.00114)
(-0.0124155 0.00248617 1.00174)
(-0.0156136 0.00352217 1.00269)
(-0.019926 0.00496367 1.00422)
(-0.025715 0.00697147 1.00664)
(-0.0333863 0.00974515 1.01037)
(-0.0433113 0.0135027 1.01593)
(-0.0556508 0.0184189 1.02374)
(-0.0699916 0.024471 1.03347)
(-0.0847708 0.0311759 1.04238)
(-0.0969047 0.0374431 1.04139)
(-0.10092 0.0410773 1.00579)
(-0.0819565 0.0347689 0.869954)
(-0.0205796 0.00828646 0.471435)
(-0.0015799 -0.00147396 1.00014)
(-0.00170862 -0.00137872 1.00013)
(-0.0018325 -0.00130123 1.00013)
(-0.00196742 -0.00122537 1.00013)
(-0.00211742 -0.00114958 1.00014)
(-0.00228557 -0.00107298 1.00014)
(-0.00247567 -0.000994318 1.00015)
(-0.00269246 -0.000912093 1.00016)
(-0.00294194 -0.00082452 1.00017)
(-0.00323196 -0.000729358 1.00018)
(-0.00357288 -0.00062378 1.0002)
(-0.00397864 -0.000504033 1.00023)
(-0.00446822 -0.000365143 1.00027)
(-0.00506763 -0.000200151 1.00032)
(-0.00581278 6.43842e-07 1.0004)
(-0.00675356 0.000251285 1.00053)
(-0.00795936 0.000572104 1.00073)
(-0.00952628 0.000992603 1.00103)
(-0.0115862 0.0015554 1.00152)
(-0.0143171 0.00232139 1.00228)
(-0.0179533 0.00337612 1.00348)
(-0.0227905 0.00483618 1.00535)
(-0.0291782 0.00685289 1.0082)
(-0.0374828 0.00960746 1.01247)
(-0.0479956 0.0132872 1.01861)
(-0.0607456 0.0180224 1.02688)
(-0.0751388 0.0237403 1.03662)
(-0.0894171 0.029927 1.0445)
(-0.100358 0.0355128 1.04058)
(-0.102561 0.0384623 0.999441)
(-0.0819889 0.0322205 0.856615)
(-0.0206102 0.0077106 0.457524)
(-0.00185818 -0.00174275 1.00016)
(-0.002002 -0.00164013 1.00014)
(-0.00214028 -0.00155811 1.00015)
(-0.0022915 -0.00147834 1.00015)
(-0.00246034 -0.00139924 1.00016)
(-0.00265038 -0.00132004 1.00016)
(-0.00286616 -0.00123948 1.00017)
(-0.00311333 -0.0011561 1.00018)
(-0.00339914 -0.0010681 1.0002)
(-0.00373306 -0.000973219 1.00022)
(-0.00412765 -0.000868541 1.00024)
(-0.00459977 -0.000750207 1.00028)
(-0.00517222 -0.000612976 1.00033)
(-0.00587599 -0.000449625 1.00041)
(-0.00675337 -0.000249909 1.00053)
(-0.00786227 7.88642e-07 1.00071)
(-0.00928179 0.000323703 1.00098)
(-0.0111193 0.000749366 1.0014)
(-0.0135183 0.00132137 1.00205)
(-0.0166678 0.00210094 1.00304)
(-0.0208079 0.00317221 1.00455)
(-0.02623 0.00464682 1.00682)
(-0.0332601 0.00666523 1.01018)
(-0.04221 0.00938864 1.01505)
(-0.053274 0.0129726 1.02178)
(-0.0663343 0.0175041 1.03044)
(-0.0806109 0.0228653 1.03997)
(-0.094165 0.0285212 1.04641)
(-0.103678 0.0334366 1.03897)
(-0.103895 0.0357495 0.991634)
(-0.0817251 0.0296486 0.841485)
(-0.0205854 0.00714524 0.442468)
(-0.0022013 -0.00207404 1.00018)
(-0.00236406 -0.00196265 1.00017)
(-0.00252058 -0.00187535 1.00017)
(-0.0026926 -0.00179109 1.00017)
(-0.00288564 -0.00170835 1.00018)
(-0.00310401 -0.00162643 1.00019)
(-0.00335321 -0.00154415 1.0002)
(-0.00364015 -0.00146005 1.00022)
(-0.0039737 -0.00137234 1.00024)
(-0.0043655 -0.00127873 1.00026)
(-0.00483092 -0.00117624 1.0003)
(-0.00539046 -0.00106086 1.00036)
(-0.00607158 -0.000927104 1.00044)
(-0.0069112 -0.000767327 1.00055)
(-0.00795896 -0.000570783 1.00073)
(-0.00928158 -0.000322056 1.00098)
(-0.0109684 9.24347e-07 1.00137)
(-0.0131373 0.000429728 1.00194)
(-0.0159426 0.0010088 1.0028)
(-0.0195802 0.00179946 1.00408)
(-0.0242905 0.00288375 1.00597)
(-0.0303508 0.00436763 1.00873)
(-0.0380505 0.00637912 1.01268)
(-0.0476312 0.00905821 1.01817)
(-0.0591738 0.0125281 1.02548)
(-0.0724023 0.0168345 1.03439)
(-0.0863522 0.0218202 1.04343)
(-0.0989292 0.0269403 1.04792)
(-0.10677 0.0312081 1.03627)
(-0.104847 0.0329448 0.982056)
(-0.0811263 0.0270642 0.824338)
(-0.0204984 0.00659228 0.426223)
(-0.00263344 -0.00249117 1.00021)
(-0.00282048 -0.00236924 1.00019)
(-0.00300068 -0.0022757 1.0002)
(-0.00319992 -0.00218632 1.00021)
(-0.00342485 -0.0020996 1.00022)
(-0.0036808 -0.00201504 1.00023)
(-0.00397453 -0.0019315 1.00025)
(-0.00431464 -0.00184755 1.00027)
(-0.00471217 -0.00176139 1.0003)
(-0.00518149 -0.00167073 1.00034)
(-0.00574153 -0.00157247 1.0004)
(-0.00641726 -0.00146243 1.00048)
(-0.00724172 -0.00133486 1.0006)
(-0.00825861 -0.00118164 1.00078)
(-0.00952568 -0.000991351 1.00103)
(-0.0111188 -0.000747778 1.0014)
(-0.0131371 -0.000427829 1.00194)
(-0.0157081 1.04446e-06 1.00273)
(-0.018993 0.000584032 1.00387)
(-0.0231899 0.00138217 1.00551)
(-0.0285302 0.00247519 1.00787)
(-0.0352665 0.00396209 1.01119)
(-0.0436366 0.0059579 1.01578)
(-0.0537959 0.00857995 1.02193)
(-0.0656984 0.0119193 1.02974)
(-0.0789038 0.0159828 1.03869)
(-0.0922746 0.0205811 1.04681)
(-0.103595 0.0251705 1.04873)
(-0.109518 0.0288257 1.03209)
(-0.10533 0.0300591 0.970332)
(-0.0801519 0.0244818 0.804917)
(-0.0203408 0.00605351 0.408744)
(-0.00319158 -0.00302989 1.00026)
(-0.0034105 -0.00289503 1.00024)
(-0.00362225 -0.00279397 1.00025)
(-0.00385807 -0.00269865 1.00026)
(-0.00412613 -0.00260768 1.00027)
(-0.00443305 -0.00252077 1.00029)
(-0.00478736 -0.00243684 1.00032)
(-0.00519984 -0.00235447 1.00036)
(-0.00568429 -0.00227187 1.0004)
(-0.00625858 -0.00218666 1.00047)
(-0.00694597 -0.00209563 1.00056)
(-0.00777674 -0.00199436 1.0007)
(-0.00879029 -0.00187671 1.00088)
(-0.0100378 -0.00173403 1.00114)
(-0.0115853 -0.00155413 1.00152)
(-0.0135176 -0.00131981 1.00205)
(-0.0159421 -0.0010069 1.0028)
(-0.0189927 -0.000581861 1.00387)
(-0.0228329 1.18945e-06 1.00537)
(-0.0276541 0.000802735 1.00747)
(-0.0336693 0.00189965 1.01037)
(-0.0410914 0.003384 1.01434)
(-0.0500923 0.00535631 1.01961)
(-0.060727 0.00791169 1.02638)
(-0.0728137 0.0111089 1.03452)
(-0.0857507 0.0149192 1.0432)
(-0.0982477 0.019128 1.04985)
(-0.108014 0.023204 1.04844)
(-0.111787 0.0262952 1.02598)
(-0.105247 0.0271087 0.956016)
(-0.0787565 0.0219173 0.782934)
(-0.0201026 0.00553044 0.389989)
(-0.00393351 -0.00374612 1.00033)
(-0.00419524 -0.00359497 1.00032)
(-0.00445016 -0.00348447 1.00033)
(-0.00473635 -0.00338204 1.00035)
(-0.00506394 -0.00328646 1.00038)
(-0.00544134 -0.00319768 1.00041)
(-0.00587932 -0.00311466 1.00045)
(-0.00639146 -0.00303596 1.00051)
(-0.00699502 -0.00295971 1.00059)
(-0.00771209 -0.00288339 1.0007)
(-0.00857101 -0.00280355 1.00085)
(-0.00960807 -0.00271542 1.00106)
(-0.0108696 -0.00261232 1.00134)
(-0.0124142 -0.00248489 1.00174)
(-0.0143159 -0.00232 1.00228)
(-0.0166667 -0.00209931 1.00304)
(-0.0195793 -0.00179748 1.00408)
(-0.0231891 -0.00137986 1.00551)
(-0.0276538 -0.000800246 1.00747)
(-0.0331486 1.35664e-06 1.01012)
(-0.0398533 0.00109856 1.01365)
(-0.0479281 0.00257603 1.01831)
(-0.0574633 0.00452089 1.02425)
(-0.0684047 0.00700492 1.03152)
(-0.0804328 0.0100574 1.03974)
(-0.0927976 0.0136157 1.04765)
(-0.104089 0.0174469 1.05215)
(-0.111996 0.0210416 1.04652)
(-0.113412 0.0236306 1.01733)
(-0.104491 0.0241162 0.938577)
(-0.0768934 0.0193904 0.758066)
(-0.0197719 0.00502419 0.369919)
(-0.00495059 -0.00472847 1.00048)
(-0.00527103 -0.004556 1.00047)
(-0.00558631 -0.00443292 1.00049)
(-0.00594316 -0.00432136 1.00052)
(-0.00635424 -0.00422035 1.00056)
(-0.0068302 -0.00413007 1.00062)
(-0.00738465 -0.00404945 1.0007)
(-0.00803459 -0.0039769 1.00079)
(-0.00880138 -0.00391034 1.00093)
(-0.00971197 -0.00384693 1.00111)
(-0.0108003 -0.00378276 1.00135)
(-0.012109 -0.00371247 1.00167)
(-0.013691 -0.00362858 1.0021)
(-0.0156119 -0.00352072 1.00269)
(-0.0179516 -0.00337454 1.00348)
(-0.0208062 -0.00317039 1.00455)
(-0.0242888 -0.00288159 1.00597)
(-0.0285289 -0.00247258 1.00787)
(-0.0336683 -0.00189675 1.01037)
(-0.0398527 -0.00109558 1.01365)
(-0.0472157 1.65089e-06 1.01788)
(-0.0558474 0.00147213 1.02322)
(-0.0657472 0.00339005 1.02974)
(-0.0767457 0.00580729 1.03726)
(-0.0883959 0.00872351 1.04513)
(-0.0998261 0.0120479 1.05163)
(-0.109553 0.0155317 1.0531)
(-0.115306 0.0186946 1.04225)
(-0.114208 0.0208565 1.0054)
(-0.102946 0.0211109 0.91739)
(-0.0745128 0.0169211 0.729955)
(-0.0193348 0.0045355 0.348502)
(-0.00638739 -0.0061175 1.00076)
(-0.0067896 -0.00591574 1.00076)
(-0.00719053 -0.00577449 1.00079)
(-0.00764755 -0.00564991 1.00085)
(-0.00817643 -0.00554124 1.00093)
(-0.00879055 -0.00544884 1.00102)
(-0.00950683 -0.00537139 1.00115)
(-0.0103462 -0.00530692 1.00132)
(-0.0113346 -0.00525281 1.00154)
(-0.0125041 -0.00520557 1.00183)
(-0.0138941 -0.00516052 1.00221)
(-0.0155531 -0.00511124 1.00271)
(-0.0175396 -0.00504903 1.00336)
(-0.0199238 -0.00496207 1.00422)
(-0.022788 -0.00483442 1.00535)
(-0.0262274 -0.00464481 1.00682)
(-0.0303481 -0.00436517 1.00873)
(-0.0352639 -0.00395911 1.01119)
(-0.0410891 -0.00338047 1.01433)
(-0.0479263 -0.00257225 1.0183)
(-0.0558465 -0.00146844 1.02322)
(-0.0648587 2.02988e-06 1.02915)
(-0.0748612 0.00190156 1.036)
(-0.0855763 0.00426481 1.04338)
(-0.0964484 0.00706893 1.05025)
(-0.106528 0.0101954 1.05447)
(-0.114317 0.0133854 1.05185)
(-0.117655 0.0161864 1.03467)
(-0.113957 0.0180083 0.989257)
(-0.10049 0.0181295 0.891716)
(-0.0715666 0.0145333 0.698204)
(-0.0187753 0.00406435 0.325713)
(-0.0084699 -0.00813334 1.00132)
(-0.00898665 -0.00788915 1.00133)
(-0.00950961 -0.00771937 1.0014)
(-0.0101086 -0.00757376 1.00149)
(-0.0108028 -0.00745168 1.00162)
(-0.0116087 -0.00735336 1.00179)
(-0.0125469 -0.00727683 1.00201)
(-0.0136422 -0.00721924 1.00229)
(-0.014925 -0.00717693 1.00264)
(-0.016432 -0.00714524 1.0031)
(-0.0182074 -0.00711806 1.00369)
(-0.0203034 -0.00708735 1.00445)
(-0.0227814 -0.00704255 1.00541)
(-0.0257121 -0.00696979 1.00664)
(-0.0291749 -0.00685103 1.0082)
(-0.0332563 -0.00666307 1.01018)
(-0.0380464 -0.00637649 1.01267)
(-0.0436323 -0.00595452 1.01578)
(-0.0500882 -0.00535219 1.01961)
(-0.0574601 -0.00451606 1.02425)
(-0.0657449 -0.0033851 1.02974)
(-0.0748599 -0.00189697 1.036)
(-0.0846045 2.47477e-06 1.04276)
(-0.094601 0.0023348 1.04933)
(-0.104222 0.00506116 1.05433)
(-0.112493 0.00804602 1.05515)
(-0.117976 0.0110181 1.04719)
(-0.118698 0.0135515 1.0225)
(-0.11242 0.0151346 0.967739)
(-0.096993 0.0152162 0.860686)
(-0.0680067 0.0122505 0.662377)
(-0.0180759 0.00361005 0.301538)
(-0.0115403 -0.0111103 1.00242)
(-0.0122164 -0.0108015 1.00245)
(-0.0129118 -0.0105837 1.00256)
(-0.013709 -0.0104008 1.00273)
(-0.014631 -0.0102517 1.00294)
(-0.0156969 -0.0101359 1.00322)
(-0.0169305 -0.0100501 1.00358)
(-0.0183603 -0.00998975 1.00403)
(-0.0200199 -0.0099493 1.0046)
(-0.021949 -0.00992211 1.00531)
(-0.0241939 -0.00989983 1.00619)
(-0.0268072 -0.009872 1.0073)
(-0.0298484 -0.00982541 1.00867)
(-0.0333825 -0.00974348 1.01037)
(-0.0374783 -0.0096056 1.01247)
(-0.0422047 -0.00938648 1.01504)
(-0.0476253 -0.00905553 1.01817)
(-0.0537896 -0.00857646 1.02193)
(-0.0607207 -0.00790705 1.02638)
(-0.0683992 -0.00699931 1.03151)
(-0.0767413 -0.00580094 1.03726)
(-0.0855731 -0.00425863 1.04338)
(-0.0946 -0.00232943 1.04933)
(-0.103368 2.72687e-06 1.05414)
(-0.111213 0.00269237 1.05606)
(-0.117203 0.00559848 1.05212)
(-0.120043 0.00844845 1.03745)
(-0.118033 0.0108298 1.00409)
(-0.109321 0.0122909 0.939414)
(-0.0923242 0.0124233 0.823288)
(-0.0637911 0.0101007 0.622)
(-0.0172182 0.00317084 0.275976)
(-0.0160883 -0.0155279 1.00451)
(-0.0169812 -0.0151176 1.00458)
(-0.0179141 -0.0148162 1.00477)
(-0.0189799 -0.0145641 1.00504)
(-0.0202039 -0.0143589 1.00539)
(-0.0216073 -0.0141981 1.00584)
(-0.0232158 -0.0140758 1.00641)
(-0.0250594 -0.0139846 1.0071)
(-0.0271728 -0.0139161 1.00796)
(-0.0295954 -0.0138606 1.009)
(-0.032371 -0.0138065 1.01028)
(-0.0355474 -0.0137402 1.01182)
(-0.0391754 -0.013645 1.01369)
(-0.0433065 -0.0135012 1.01593)
(-0.0479898 -0.0132854 1.01861)
(-0.0532672 -0.0129706 1.02178)
(-0.0591659 -0.0125256 1.02548)
(-0.0656897 -0.011916 1.02973)
(-0.0728049 -0.0111044 1.03452)
(-0.0804248 -0.0100513 1.03973)
(-0.0883894 -0.00871639 1.04513)
(-0.0964444 -0.00706119 1.05025)
(-0.104221 -0.00505413 1.05433)
(-0.111213 -0.00268687 1.05606)
(-0.116765 2.52719e-06 1.0534)
(-0.120041 0.00288504 1.04314)
(-0.119974 0.00570302 1.02031)
(-0.11522 0.00806085 0.977295)
(-0.104366 0.00953245 0.902509)
(-0.0863376 0.00980617 0.778332)
(-0.0588777 0.00811356 0.576558)
(-0.0161857 0.00274549 0.24904)
(-0.0227446 -0.0220061 1.00838)
(-0.0239187 -0.0214333 1.0085)
(-0.0251637 -0.0209861 1.00879)
(-0.0265734 -0.0206066 1.0092)
(-0.0281731 -0.0202886 1.00974)
(-0.029984 -0.0200259 1.01042)
(-0.0320311 -0.0198084 1.01125)
(-0.0343428 -0.0196246 1.01226)
(-0.0369505 -0.019462 1.01347)
(-0.0398883 -0.0193068 1.01492)
(-0.0431918 -0.0191436 1.01663)
(-0.046897 -0.0189548 1.01864)
(-0.0510381 -0.0187204 1.021)
(-0.0556449 -0.0184176 1.02374)
(-0.0607385 -0.018021 1.02687)
(-0.0663259 -0.0175025 1.03043)
(-0.0723926 -0.0168324 1.03439)
(-0.0788933 -0.01598 1.03869)
(-0.0857401 -0.0149153 1.04319)
(-0.0927879 -0.0136102 1.04765)
(-0.0998184 -0.0120406 1.05163)
(-0.106523 -0.0101872 1.05447)
(-0.112491 -0.00803759 1.05515)
(-0.117203 -0.00559156 1.05212)
(-0.120042 -0.00288044 1.04314)
(-0.120308 1.74127e-06 1.02489)
(-0.117211 0.00284138 0.992607)
(-0.109835 0.00527882 0.939301)
(-0.0972593 0.0068966 0.854833)
(-0.0788812 0.00741097 0.724424)
(-0.0532191 0.00632231 0.525494)
(-0.0149613 0.00233567 0.220766)
(-0.0321306 -0.0311608 1.01505)
(-0.0336309 -0.0303244 1.01521)
(-0.0352501 -0.0296273 1.01561)
(-0.0370592 -0.0290223 1.01618)
(-0.0390779 -0.0284937 1.01692)
(-0.0413237 -0.0280277 1.01784)
(-0.0438167 -0.0276085 1.01895)
(-0.046579 -0.0272194 1.02026)
(-0.0496338 -0.0268431 1.0218)
(-0.0530038 -0.0264614 1.02359)
(-0.05671 -0.026055 1.02563)
(-0.0607696 -0.025603 1.02796)
(-0.0651939 -0.0250828 1.03057)
(-0.0699847 -0.0244702 1.03346)
(-0.0751305 -0.0237394 1.03661)
(-0.080601 -0.0228643 1.03997)
(-0.0863411 -0.0218188 1.04342)
(-0.0922628 -0.0205791 1.04681)
(-0.0982361 -0.0191249 1.04985)
(-0.104079 -0.0174424 1.05215)
(-0.109545 -0.0155254 1.0531)
(-0.114312 -0.0133773 1.05185)
(-0.117975 -0.0110096 1.04719)
(-0.120045 -0.00844051 1.03745)
(-0.119977 -0.00569742 1.02031)
(-0.117213 -0.00283887 0.992608)
(-0.111232 4.14981e-07 0.949997)
(-0.101556 0.00254215 0.886471)
(-0.0877905 0.00439718 0.793669)
(-0.0698076 0.00525302 0.659917)
(-0.0467434 0.00474861 0.468197)
(-0.0135242 0.00194842 0.191209)
(-0.0443559 -0.0431309 1.02512)
(-0.0461753 -0.0419072 1.02523)
(-0.0481911 -0.0408096 1.02565)
(-0.0503955 -0.0398368 1.02629)
(-0.052797 -0.0389542 1.02713)
(-0.0554074 -0.0381344 1.02816)
(-0.0582379 -0.0373544 1.02936)
(-0.0612999 -0.0365919 1.03076)
(-0.0646033 -0.0358253 1.03233)
(-0.0681551 -0.0350334 1.03408)
(-0.0719568 -0.0341947 1.03599)
(-0.0760035 -0.0332872 1.03804)
(-0.080281 -0.0322884 1.04019)
(-0.0847631 -0.0311756 1.04237)
(-0.0894079 -0.0299267 1.0445)
(-0.0941545 -0.0285209 1.04641)
(-0.0989176 -0.0269398 1.04791)
(-0.103583 -0.0251695 1.04872)
(-0.108003 -0.0232021 1.04844)
(-0.111987 -0.0210385 1.04652)
(-0.1153 -0.0186898 1.04225)
(-0.117653 -0.01618 1.03467)
(-0.1187 -0.0135436 1.0225)
(-0.118039 -0.0108222 1.0041)
(-0.115227 -0.00805455 0.977297)
(-0.109842 -0.00527553 0.939303)
(-0.101559 -0.0025422 0.886472)
(-0.0902325 -9.10979e-07 0.814025)
(-0.0759363 0.00206064 0.715632)
(-0.059062 0.00331035 0.582857)
(-0.0393495 0.00338962 0.40398)
(-0.0118191 0.00159454 0.160438)
(-0.0583681 -0.0569235 1.03584)
(-0.0605051 -0.0553016 1.0357)
(-0.062877 -0.0536752 1.03589)